,SMILES,"T,K",Solubility,Solvent,SMILES_Solvent,Source
43276,Nc1ccc(C(=O)/C=C/c2ccc(-c3cccc([N+](=O)[O-])c3)o2)cc1,303.15,0.002639,DMF,CN(C)C=O,10.1021/je900370q
43281,O=C(/C=C/c1ccc(-c2cccc([N+](=O)[O-])c2)o1)c1ccc(Cl)cc1,303.15,0.0046,DMF,CN(C)C=O,10.1021/je900370q
43286,O=C(/C=C/c1ccc(-c2cccc([N+](=O)[O-])c2)o1)c1ccc(Br)cc1,303.15,0.0071,DMF,CN(C)C=O,10.1021/je900370q
43291,O=C(/C=C/c1ccc(-c2cccc([N+](=O)[O-])c2)o1)c1ccccc1,303.15,0.0099,DMF,CN(C)C=O,10.1021/je900370q
43296,O=C(/C=C/c1ccc(-c2cccc([N+](=O)[O-])c2)o1)c1ccc(O)cc1,303.15,0.0067,DMF,CN(C)C=O,10.1021/je900370q
43301,O=C(/C=C/c1ccc(-c2cccc([N+](=O)[O-])c2)o1)CO,303.15,0.009452,DMF,CN(C)C=O,10.1021/je900370q
43306,O=C(/C=C/c1ccc(-c2cccc([N+](=O)[O-])c2)o1)c1ccc2ccc(=O)oc2c1,303.15,0.007,DMF,CN(C)C=O,10.1021/je900370q
43311,NC(N)=C([N+](=O)[O-])[N+](=O)[O-],303.15,0.102,DMF,CN(C)C=O,10.1021/je900235s
43320,NC[C@H]1O[C@H](O[C@@H]2[C@@H](N)C[C@@H](N)[C@H](O[C@H]3O[C@H](CO)[C@@H](O)[C@H](N)[C@H]3O)[C@H]2O)[C@H](N)C[C@@H]1O,303.15,0.0002495,DMF,CN(C)C=O,10.1021/je800991v
43329,CCCCC(=O)N(Cc1ccc(-c2ccccc2-c2nn[nH]n2)cc1)[C@H](C(=O)O)C(C)C,303.15,0.0253,DMF,CN(C)C=O,10.1021/je8007815
43380,CO/N=C(\C(=O)N[C@@H]1C(=O)N2C(C(=O)[O-])=C(COC(C)=O)CS[C@H]12)c1csc(N)n1.[Na+],303.15,0.075678,DMF,CN(C)C=O,10.1021/je600564q
43386,c1ccc2cc3ccccc3cc2c1,303.15,0.0068,DMF,CN(C)C=O,10.1021/je060454x
43432,O=C(O)c1cc([N+](=O)[O-])cc([N+](=O)[O-])c1O,303.15,0.1523,DMF,CN(C)C=O,10.1021/acs.jced.1c00396
43442,CC(C)(Oc1ccc(C2CC2(Cl)Cl)cc1)C(=O)O,303.15,0.3186,DMF,CN(C)C=O,10.1021/acs.jced.1c00276
43452,CNc1nc(C)nc(OC)n1,303.15,0.3242,DMF,CN(C)C=O,10.1021/acs.jced.1c00288
43462,COCCOc1ccccc1S(=O)(=O)NC(=O)Nc1nc(OC)nc(OC)n1,303.15,0.03852,DMF,CN(C)C=O,10.1021/acs.jced.1c00357
43472,COC(=O)c1sccc1S(=O)(=O)NC(=O)Nc1nc(C)nc(OC)n1,303.15,0.001046,DMF,CN(C)C=O,10.1021/acs.jced.1c00267
43482,CCCc1cc(=O)[nH]c(=S)[nH]1,303.15,0.15525,DMF,CN(C)C=O,10.1021/acs.jced.1c00071
43485,Nc1ccc(Oc2ccc(N)cc2)cc1,303.15,0.1204,DMF,CN(C)C=O,10.1021/acs.jced.0c00965
43497,COC(=O)c1c(Cl)nn(C)c1S(=O)(=O)NC(=O)Nc1nc(OC)cc(OC)n1,303.15,0.001604,DMF,CN(C)C=O,10.1021/acs.jced.0c00633
43507,CCS(=O)(=O)c1cccnc1S(=O)(=O)NC(=O)Nc1nc(OC)cc(OC)n1,303.15,0.0001477,DMF,CN(C)C=O,10.1021/acs.jced.0c00632
43517,O=C(Nc1ccc(F)cc1F)c1cccnc1Oc1cccc(C(F)(F)F)c1,303.15,0.00153,DMF,CN(C)C=O,10.1021/acs.jced.0c00631
43527,O=C1NC(=O)c2cc([N+](=O)[O-])ccc21,303.15,0.09125,DMF,CN(C)C=O,10.1021/acs.jced.0c00479
43537,Nc1cc(-c2ccncc2)c[nH]c1=O,303.15,0.0001545,DMF,CN(C)C=O,10.1021/acs.jced.0c00393
43547,Cc1[nH]c(=O)c(C#N)cc1-c1ccncc1,303.15,0.0001733,DMF,CN(C)C=O,10.1021/acs.jced.0c00394
43557,O=C(NCCO[N+](=O)[O-])c1cccnc1,303.15,0.01906,DMF,CN(C)C=O,10.1021/acs.jced.0c00370
43567,O=Cc1ccc(O)c(Br)c1,303.15,0.02752,DMF,CN(C)C=O,10.1021/acs.jced.0c00043
43574,N[C@H](Cc1c[nH]cn1)C(=O)O,303.15,0.2005,DMF,CN(C)C=O,10.1021/acs.jced.9b01051
43586,Cc1cc(=O)oc2cc(N)ccc12,303.15,0.156,DMF,CN(C)C=O,10.1021/acs.jced.9b00873
43597,CC(=O)Oc1ccc(C(c2ccc(OC(C)=O)cc2)c2ccccn2)cc1,303.15,0.004067,DMF,CN(C)C=O,10.1021/acs.jced.9b00728
43606,COc1c(N2CCNC(C)C2)c(F)cc2c(=O)c(C(=O)O)cn(C3CC3)c12,303.15,0.006525,DMF,CN(C)C=O,10.1021/acs.jced.9b00930
43614,COC(=O)Nc1nc2ccc(Sc3ccccc3)cc2[nH]1,303.15,0.1344,DMF,CN(C)C=O,10.1021/acs.jced.9b00471
43624,N#CC(c1ccc(Cl)cc1)c1c(Cl)cc(-n2ncc(=O)[nH]c2=O)cc1Cl,303.15,0.03724,DMF,CN(C)C=O,10.1021/acs.jced.9b00353
43631,O=c1[nH]c2ccccc2n1CCCN1CCC(n2c(=O)[nH]c3cc(Cl)ccc32)CC1,303.15,0.0002822,DMF,CN(C)C=O,10.1021/acs.jced.9b00216
43640,CCCc1cc(=O)[nH]c(=S)[nH]1,303.15,0.1796,DMF,CN(C)C=O,10.1021/acs.jced.9b00201
43651,O=C(OCC1c2ccccc2-c2ccccc21)ON1C(=O)CCC1=O,303.15,0.01321,DMF,CN(C)C=O,10.1021/acs.jced.8b00732
43661,COc1cc(N)nc(OC)n1,303.15,0.1578,DMF,CN(C)C=O,10.1021/acs.jced.8b00719
43671,CS(=O)(=O)c1ccc([C@@H](O)[C@@H](CO)NC(=O)C(Cl)Cl)cc1,303.15,0.03082,DMF,CN(C)C=O,10.1021/acs.jced.8b00179
43680,CN1CC(O)c2cc(N=NC(N)=O)c(O)cc21,303.15,0.002016,DMF,CN(C)C=O,10.1021/acs.jced.7b00982
43699,Nc1cccc(S(=O)(=O)c2cccc(N)c2)c1,303.15,0.1201,DMF,CN(C)C=O,10.1016/j.jct.2021.106612
43710,CC(=O)Nc1ccc(OC(=O)c2ccccc2OC(C)=O)cc1,303.15,0.02435,DMF,CN(C)C=O,10.1016/j.jct.2021.106517
43719,Cn1c(=O)cc(N2CCC[C@@H](N)C2)n(Cc2ccccc2C#N)c1=O.O=C(O)c1ccccc1,303.15,0.013806,DMF,CN(C)C=O,10.1016/j.jct.2021.106474
43728,CN1CCN(C2=Nc3cc(Cl)ccc3Nc3ccccc32)CC1,303.15,0.1232,DMF,CN(C)C=O,10.1016/j.jct.2021.106451
43739,CCN(CC)CCCC(C)Nc1ccnc2cc(Cl)ccc12.O=P(O)(O)O.O=P(O)(O)O,303.15,2.536e-05,DMF,CN(C)C=O,10.1016/j.jct.2020.106368
43747,O=c1cc(CO)occ1O,303.15,0.1467,DMF,CN(C)C=O,10.1016/j.jct.2020.106280
43757,O=Cc1cc(Br)c(O)c(Br)c1,303.15,0.01569,DMF,CN(C)C=O,10.1016/j.jct.2020.106252
43767,O=C(O)CCc1nc(-c2ccccc2)c(-c2ccccc2)o1,303.15,0.18591,DMF,CN(C)C=O,10.1016/j.jct.2020.106239
43777,CC(C)Oc1ccc2c(=O)c(-c3ccccc3)coc2c1,303.15,0.062249,DMF,CN(C)C=O,10.1016/j.jct.2020.106231
43787,N#Cc1ccc2c(c1)OCO2,303.15,0.2927,DMF,CN(C)C=O,10.1016/j.jct.2020.106191
43797,CNC[C@H](O)c1cccc(O)c1.Cl,303.15,0.2508,DMF,CN(C)C=O,10.1016/j.jct.2019.105959
43817,N[C@H](Cc1c[nH]c2ccccc12)C(=O)O,303.15,0.008719,DMF,CN(C)C=O,10.1016/j.jct.2018.08.018
43832,c1ccc(-c2nnn[nH]2)cc1,303.15,0.3084,DMF,CN(C)C=O,10.1016/j.jct.2017.04.019
43849,Cc1ccc(N)c([N+](=O)[O-])c1,303.15,0.1936,DMF,CN(C)C=O,10.1016/j.jct.2017.02.008
43866,O=Cc1cccc([N+](=O)[O-])c1,303.15,0.6603,DMF,CN(C)C=O,10.1016/j.jct.2016.10.040
43872,CC(=O)[C@@]1(O)CC[C@H]2[C@@H]3CCC4=CC(=O)CC[C@]4(C)[C@H]3[C@@H](O)C[C@@]21C,303.15,0.1003,DMF,CN(C)C=O,10.1016/j.jct.2016.10.046
43881,COc1cc(Cl)nc(N)n1,303.15,0.08459,DMF,CN(C)C=O,10.1016/j.jct.2016.10.020
43892,O=Cc1ccc([N+](=O)[O-])cc1,303.15,0.2135,DMF,CN(C)C=O,10.1016/j.jct.2016.09.012
43901,O=Cc1ccc(C=O)cc1,303.15,0.1525,DMF,CN(C)C=O,10.1016/j.jct.2016.07.013
43929,Cc1cc(C(=O)O)ccc1[N+](=O)[O-],303.15,0.1109,DMF,CN(C)C=O,10.1016/j.jct.2016.07.023
43941,O=C1NC(=O)C2C3C=CC(C3)C12,303.15,0.116284,DMF,CN(C)C=O,10.1016/j.fluid.2019.112301
43958,Cc1nnc(SCC2=C(C(=O)O)N3C(=O)[C@@H](NC(=O)Cn4cnnn4)[C@H]3SC2)s1,303.15,0.16713,DMF,CN(C)C=O,10.1016/j.fluid.2014.12.020
43965,O=C1C=CC(=O)O1,303.15,0.08697,DMF,CN(C)C=O,10.1016/j.fluid.2014.01.008
43974,Nc1ccc(Oc2ccc(N)cc2)cc1,303.15,0.119783,DMF,CN(C)C=O,10.1016/j.fluid.2013.07.010
43984,C/C=C/C(=O)O,303.15,0.6088,DMF,CN(C)C=O,10.1016/j.fluid.2013.06.038
43991,CC(=O)Oc1ccccc1C(=O)Nc1ncc([N+](=O)[O-])s1,303.15,0.1048,NMP,CN1CCCC1=O,10.1021/acs.jced.0c00254
43999,CC(=O)Nc1ccc(OC(=O)c2ccccc2OC(C)=O)cc1,303.15,0.03778,NMP,CN1CCCC1=O,10.1021/acs.jced.0c00301
44008,CC(=O)Nc1ccccc1[N+](=O)[O-],303.15,0.3303,NMP,CN1CCCC1=O,10.1021/acs.jced.1c00037
44018,CN1COCN(Cc2cnc(Cl)s2)/C1=N/[N+](=O)[O-],303.15,0.119,NMP,CN1CCCC1=O,10.1021/acs.jced.0c00752
44029,COc1cc2nc(Cl)nc(N)c2cc1OC,303.15,0.01132,NMP,CN1CCCC1=O,10.1021/acs.jced.0c00506
44037,Nc1cccc(Cl)c1C(=O)O,303.15,0.1189,NMP,CN1CCCC1=O,10.1021/acs.jced.0c00320
44052,O=C(O)c1cccc([N+](=O)[O-])c1O,303.15,0.191,NMP,CN1CCCC1=O,10.1021/acs.jced.1c00259
44062,O=C(O)c1cc([N+](=O)[O-])cc([N+](=O)[O-])c1O,303.15,0.1655,NMP,CN1CCCC1=O,10.1021/acs.jced.0c00122
44073,O=c1cc(CBr)c2ccccc2[nH]1,303.15,0.01084,NMP,CN1CCCC1=O,10.1021/acs.jced.0c00303
44080,Oc1ccc(OCc2ccccc2)cc1,303.15,0.000193,NMP,CN1CCCC1=O,10.1021/acs.jced.9b00817
44086,Oc1c(Br)cc(Br)c2cccnc12,303.15,0.01481,NMP,CN1CCCC1=O,10.1021/acs.jced.9b01190
44094,O=[N+]([O-])N1CN([N+](=O)[O-])CN([N+](=O)[O-])CN([N+](=O)[O-])C1,303.15,0.0637,NMP,CN1CCCC1=O,10.1021/acs.jced.9b01192
44111,COc1cc([N+](=O)[O-])ccc1N,303.15,0.3393,NMP,CN1CCCC1=O,10.1021/acs.jced.9b00991
44121,Nc1ccc(Cl)cc1[N+](=O)[O-],303.15,0.1249,NMP,CN1CCCC1=O,10.1021/acs.jced.9b00919
44132,O=C(O)c1cccnc1Cl,303.15,0.3965,NMP,CN1CCCC1=O,10.1021/acs.jced.9b00661
44140,NC(N)=NC(N)=NCCc1ccccc1,303.15,0.02804,NMP,CN1CCCC1=O,10.1021/acs.jced.9b00844
44150,Nc1c(Cl)cc([N+](=O)[O-])cc1Cl,303.15,0.1789,NMP,CN1CCCC1=O,10.1021/acs.jced.9b00778
44157,N[C@H](Cc1c[nH]cn1)C(=O)O,303.15,0.0859,NMP,CN1CCCC1=O,10.1021/acs.jced.9b00659
44168,N=C(N)NC(N)=S,303.15,0.028118,NMP,CN1CCCC1=O,10.1021/acs.jced.9b00458
44178,O=C1C=CC(=O)N1c1ccccc1Br,303.15,0.2448,NMP,CN1CCCC1=O,10.1021/acs.jced.9b00560
44185,c1cc(-n2c3ccccc3c3ccccc32)cc(-n2c3ccccc3c3ccccc32)c1,303.15,0.0761,NMP,CN1CCCC1=O,10.1021/acs.jced.9b00432
44191,Nc1nnn[nH]1,303.15,0.04319,NMP,CN1CCCC1=O,10.1021/acs.jced.9b00385
44197,NNC(=O)NN.O=[N+]([O-])NC1=NC(C2N=NC(N[N+](=O)[O-])=N2)N=N1,303.15,0.0001907,NMP,CN1CCCC1=O,10.1021/acs.jced.9b00275
44211,CC(=NC#N)N(C)Cc1ccc(Cl)nc1,303.15,0.4046,NMP,CN1CCCC1=O,10.1021/acs.jced.9b00294
44220,N#Cc1cccc([N+](=O)[O-])c1C#N,303.15,0.1408,NMP,CN1CCCC1=O,10.1021/acs.jced.8b01250
44230,CC1=NNC(=O)N(/N=C/c2cccnc2)C1,303.15,0.003379,NMP,CN1CCCC1=O,10.1021/acs.jced.9b00229
44237,N[C@H](CC(=O)O)C(=O)O,303.15,0.01514,NMP,CN1CCCC1=O,10.1021/acs.jced.9b00320
44250,Nc1cc([N+](=O)[O-])ccc1Cl,303.15,0.1931,NMP,CN1CCCC1=O,10.1021/acs.jced.8b00931
44257,NC(=O)c1ccc([N+](=O)[O-])cc1,303.15,0.07754,NMP,CN1CCCC1=O,10.1021/acs.jced.9b00065
44267,C[C@@H](O)[C@H]1C(=O)N2C(C(=O)[O-])=C(SC3Cn4cnc[n+]4C3)[C@H](C)[C@H]12,303.15,0.0001059,NMP,CN1CCCC1=O,10.1021/acs.jced.8b01051
44276,COC(=O)Nc1nc2ccc(C(=O)c3ccc(F)cc3)cc2[nH]1,303.15,0.001417,NMP,CN1CCCC1=O,10.1021/acs.jced.8b01126
44288,O=c1nc[nH]c2[nH]ncc12,303.15,0.02808,NMP,CN1CCCC1=O,10.1021/acs.jced.8b00430
44298,O=Cc1ccc(C=O)cc1,303.15,0.2019,NMP,CN1CCCC1=O,10.1021/acs.jced.8b00091
44308,O=[N+]([O-])N1C2C3N([N+](=O)[O-])C1C1N([N+](=O)[O-])C(C(N1[N+](=O)[O-])N3[N+](=O)[O-])N2[N+](=O)[O-],303.15,0.20506,NMP,CN1CCCC1=O,10.1021/acs.jced.6b00664
44347,NC(N)=C([N+](=O)[O-])[N+](=O)[O-],303.15,0.178,NMP,CN1CCCC1=O,10.1021/je900235s
44402,CO/N=C(\C(=O)N[C@@H]1C(=O)N2C(C(=O)[O-])=C(COC(C)=O)CS[C@H]12)c1csc(N)n1.[Na+],303.15,0.073655,NMP,CN1CCCC1=O,10.1021/je600564q
44426,O=C(O)c1cc([N+](=O)[O-])cc([N+](=O)[O-])c1O,303.15,0.1655,NMP,CN1CCCC1=O,10.1021/acs.jced.1c00396
44436,O=C1C=CC(=O)N1c1ccccc1Br,303.15,0.2448,NMP,CN1CCCC1=O,10.1021/acs.jced.1c00151
44446,Nc1c(Cl)cc([N+](=O)[O-])cc1Cl,303.15,0.1789,NMP,CN1CCCC1=O,10.1021/acs.jced.0c00199
44453,N[C@H](Cc1c[nH]cn1)C(=O)O,303.15,0.0859,NMP,CN1CCCC1=O,10.1021/acs.jced.9b01051
44466,CC(=O)Oc1ccc(C(c2ccc(OC(C)=O)cc2)c2ccccn2)cc1,303.15,0.003716,NMP,CN1CCCC1=O,10.1021/acs.jced.9b00728
44471,CCCc1cc(=O)[nH]c(=S)[nH]1,303.15,0.1141,NMP,CN1CCCC1=O,10.1021/acs.jced.9b00201
44482,O=Cc1ccc(C(=O)O)cc1,303.15,0.121,NMP,CN1CCCC1=O,10.1021/acs.jced.8b01262
44492,CC(=O)Nc1ccc(OC(=O)c2ccccc2OC(C)=O)cc1,303.15,0.04104,NMP,CN1CCCC1=O,10.1016/j.jct.2021.106517
44501,O=c1cc(CO)occ1O,303.15,0.2085,NMP,CN1CCCC1=O,10.1016/j.jct.2020.106280
44511,CNC[C@H](O)c1cccc(O)c1.Cl,303.15,0.1976,NMP,CN1CCCC1=O,10.1016/j.jct.2019.105959
44524,Nc1ccc(N)c([N+](=O)[O-])c1,303.15,0.0731,NMP,CN1CCCC1=O,10.1016/j.jct.2017.01.006
44541,Nc1cc(Cl)ccc1C(=O)O,303.15,0.05085,NMP,CN1CCCC1=O,10.1016/j.jct.2016.11.019
44554,Cn1cnc([N+](=O)[O-])c1Cl,303.15,0.2091,NMP,CN1CCCC1=O,10.1016/j.jct.2016.10.006
44569,Nc1nnc[nH]1,303.15,0.2062,NMP,CN1CCCC1=O,10.1016/j.jct.2016.09.033
44600,Cc1cc(C(=O)O)ccc1[N+](=O)[O-],303.15,0.1132,NMP,CN1CCCC1=O,10.1016/j.jct.2016.07.023
44617,O=Cc1cc(Br)c(O)c(Br)c1,303.15,0.005711,ethylene glycol,OCCO,10.1021/acs.jced.0c00376
44627,CC(=O)Nc1ccccc1[N+](=O)[O-],303.15,0.01032,ethylene glycol,OCCO,10.1021/acs.jced.1c00037
44636,Nc1cccc(S(=O)(=O)c2cccc(N)c2)c1,303.15,0.00843,ethylene glycol,OCCO,10.1021/acs.jced.1c00062
44646,Nc1ccc(Cc2ccc(N)c(Cl)c2)cc1Cl,303.15,0.01232,ethylene glycol,OCCO,10.1021/acs.jced.0c00655
44657,Nc1cccc(Cl)c1C(=O)O,303.15,0.04233,ethylene glycol,OCCO,10.1021/acs.jced.0c00320
44667,O=C(O)c1cccc([N+](=O)[O-])c1O,303.15,0.05797,ethylene glycol,OCCO,10.1021/acs.jced.1c00259
44677,O=C(O)c1cc([N+](=O)[O-])cc([N+](=O)[O-])c1O,303.15,0.04761,ethylene glycol,OCCO,10.1021/acs.jced.0c00122
44686,C=CC(=O)NC(C)(C)CS(=O)(=O)O,303.15,0.002374,ethylene glycol,OCCO,10.1021/acs.jced.0c00578
44696,O=C(O)Cc1ccccc1[N+](=O)[O-],303.15,0.02873,ethylene glycol,OCCO,10.1021/acs.jced.0c00543
44706,O=C(O)Cc1ccc([N+](=O)[O-])cc1,303.15,0.03015,ethylene glycol,OCCO,10.1021/acs.jced.0c00182
44717,COc1cc([N+](=O)[O-])ccc1N,303.15,0.004241,ethylene glycol,OCCO,10.1021/acs.jced.9b00991
44727,O=Cc1ccc(O)c(Br)c1,303.15,0.01261,ethylene glycol,OCCO,10.1021/acs.jced.9b01004
44737,Nc1ccc(Cl)cc1[N+](=O)[O-],303.15,0.005734,ethylene glycol,OCCO,10.1021/acs.jced.9b00919
44746,OC[C@H]1O[C@@H](Oc2ccc(O)cc2)[C@H](O)[C@@H](O)[C@@H]1O,303.15,0.0549244,ethylene glycol,OCCO,10.1021/acs.jced.9b00703
44756,NC(N)=NC(N)=NCCc1ccccc1,303.15,0.006768,ethylene glycol,OCCO,10.1021/acs.jced.9b00844
44766,Nc1c(Cl)cc([N+](=O)[O-])cc1Cl,303.15,0.001954,ethylene glycol,OCCO,10.1021/acs.jced.9b00778
44773,N[C@H](Cc1c[nH]cn1)C(=O)O,303.15,0.003198,ethylene glycol,OCCO,10.1021/acs.jced.9b00659
44785,O=C1C=CC(=O)N1c1ccccc1Br,303.15,0.009832,ethylene glycol,OCCO,10.1021/acs.jced.9b00560
44794,Cc1nc(N)nc(N)n1,303.15,0.001446,ethylene glycol,OCCO,10.1021/acs.jced.9b00593
44800,NNC(=O)NN.O=[N+]([O-])NC1=NC(C2N=NC(N[N+](=O)[O-])=N2)N=N1,303.15,7.23e-05,ethylene glycol,OCCO,10.1021/acs.jced.9b00275
44814,CC(=NC#N)N(C)Cc1ccc(Cl)nc1,303.15,0.02304,ethylene glycol,OCCO,10.1021/acs.jced.9b00294
44823,N#Cc1cccc([N+](=O)[O-])c1C#N,303.15,0.0317,ethylene glycol,OCCO,10.1021/acs.jced.8b01250
44832,N[C@H](Cc1c[nH]c2ccccc12)C(=O)O,303.15,0.004369,ethylene glycol,OCCO,10.1021/acs.jced.9b00258
44842,N[C@@H](Cc1ccc(O)cc1)C(=O)O,303.15,9.136e-05,ethylene glycol,OCCO,10.1021/acs.jced.9b00258
44851,N[C@H](CC(=O)O)C(=O)O,303.15,0.004628,ethylene glycol,OCCO,10.1021/acs.jced.9b00320
44862,NC(=O)c1ccc([N+](=O)[O-])cc1,303.15,0.007188,ethylene glycol,OCCO,10.1021/acs.jced.9b00065
44873,Nc1nc(Cl)c2[nH]cnc2n1,303.15,0.001042,ethylene glycol,OCCO,10.1021/acs.jced.8b01014
44886,COc1cc(C(=O)O)cc(OC)c1O,303.15,0.01459,ethylene glycol,OCCO,10.1021/acs.jced.7b00333
44893,Nc1ccc(C(=O)O)cc1.[K],303.15,0.127412,ethylene glycol,OCCO,10.1021/acs.jced.7b00978
44902,CC(=O)c1ccc(S(C)(=O)=O)cc1,303.15,0.0307,ethylene glycol,OCCO,10.1021/acs.jced.6b00617
44914,O=C1NC23NC(=O)NC2(N1)C(=O)NC3=O,303.15,0.0005874,ethylene glycol,OCCO,10.1021/acs.jced.6b00349
44925,CN1C(C(=O)Nc2ccccn2)=C(O)c2sccc2S1(=O)=O,303.15,0.000246,ethylene glycol,OCCO,10.1021/acs.jced.5b00382
44990,CC(C)(Oc1ccc(C2CC2(Cl)Cl)cc1)C(=O)O,303.15,0.05915,ethylene glycol,OCCO,10.1021/acs.jced.1c00276
45000,CNc1nc(C)nc(OC)n1,303.15,0.03899,ethylene glycol,OCCO,10.1021/acs.jced.1c00288
45010,CCS(=O)(=O)c1cccnc1S(=O)(=O)NC(=O)Nc1nc(OC)cc(OC)n1,303.15,1.786e-05,ethylene glycol,OCCO,10.1021/acs.jced.0c00632
45020,O=C(Nc1ccc(F)cc1F)c1cccnc1Oc1cccc(C(F)(F)F)c1,303.15,3.894e-05,ethylene glycol,OCCO,10.1021/acs.jced.0c00631
45030,Nc1cc(-c2ccncc2)c[nH]c1=O,303.15,4.354e-05,ethylene glycol,OCCO,10.1021/acs.jced.0c00393
45040,Cc1[nH]c(=O)c(C#N)cc1-c1ccncc1,303.15,3.886e-05,ethylene glycol,OCCO,10.1021/acs.jced.0c00394
45050,CCCCS(=O)(=O)N[C@@H](Cc1ccc(OCCCCC2CCNCC2)cc1)C(=O)O,303.15,0.0001087,ethylene glycol,OCCO,10.1021/acs.jced.0c00371
45060,COc1cc([N+](=O)[O-])ccc1N,303.15,0.004241,ethylene glycol,OCCO,10.1021/acs.jced.0c00041
45070,Cc1cc(=O)oc2cc(N)ccc12,303.15,0.0009739,ethylene glycol,OCCO,10.1021/acs.jced.9b00873
45079,COC(=O)Nc1nc2ccc(Sc3ccccc3)cc2[nH]1,303.15,0.0003996,ethylene glycol,OCCO,10.1021/acs.jced.9b00471
45087,CCCc1cc(=O)[nH]c(=S)[nH]1,303.15,0.00996,ethylene glycol,OCCO,10.1021/acs.jced.9b00201
45098,COc1cc2c(cc1OC)-c1cc3ccc(OC)c(OC)c3c[n+]1CC2.[Cl-],303.15,0.003624,ethylene glycol,OCCO,10.1021/acs.jced.8b01055
45108,O=C(OCC1c2ccccc2-c2ccccc21)ON1C(=O)CCC1=O,303.15,0.0003958,ethylene glycol,OCCO,10.1021/acs.jced.8b00732
45117,O=C(O)c1ccccc1,303.15,0.0689,ethylene glycol,OCCO,10.1016/j.jct.2020.106234
45128,Cc1c(C(N)=O)cc([N+](=O)[O-])cc1[N+](=O)[O-],303.15,0.004756,ethylene glycol,OCCO,10.1016/j.jct.2019.01.013
45135,COc1c(O)cc2c(c1O)[C@@H]1O[C@H](CO)[C@@H](O)[C@H](O)[C@H]1OC2=O,303.15,0.00859,ethylene glycol,OCCO,10.1016/j.jct.2016.05.003
45153,O=Cc1cc(Br)c(O)c(Br)c1,303.15,0.0006365,cyclohexane,C1CCCCC1,10.1021/acs.jced.0c00376
45160,c1ccc(-n2c(-c3cc(-c4nc5ccccc5n4-c4ccccc4)cc(-c4nc5ccccc5n4-c4ccccc4)c3)nc3ccccc32)cc1,303.15,6e-07,cyclohexane,C1CCCCC1,10.1021/acs.jced.1c00163
45167,CC(=O)Nc1ccccc1[N+](=O)[O-],303.15,0.002749,cyclohexane,C1CCCCC1,10.1021/acs.jced.1c00037
45176,Nc1cccc(S(=O)(=O)c2cccc(N)c2)c1,303.15,1.09e-05,cyclohexane,C1CCCCC1,10.1021/acs.jced.1c00062
45187,NC(=O)[C@@H]1CCCN1,303.15,0.00051,cyclohexane,C1CCCCC1,10.1021/acs.jced.0c00961
45196,Nc1cccc(Cl)c1C(=O)O,303.15,0.000155,cyclohexane,C1CCCCC1,10.1021/acs.jced.0c00320
45205,O=C(O)c1cc([N+](=O)[O-])cc([N+](=O)[O-])c1O,303.15,0.006861,cyclohexane,C1CCCCC1,10.1021/acs.jced.0c00122
45214,C=CC(=O)NC(C)(C)CS(=O)(=O)O,303.15,0.0002289,cyclohexane,C1CCCCC1,10.1021/acs.jced.0c00578
45224,O=C(O)Cc1ccccc1[N+](=O)[O-],303.15,2.944e-05,cyclohexane,C1CCCCC1,10.1021/acs.jced.0c00543
45234,O=C(O)Cc1ccc([N+](=O)[O-])cc1,303.15,4.117e-05,cyclohexane,C1CCCCC1,10.1021/acs.jced.0c00182
45244,Oc1ccc(OCc2ccccc2)cc1,303.15,0.00396,cyclohexane,C1CCCCC1,10.1021/acs.jced.9b00817
45251,COC(=O)C1=C(C)NC(C)=C(C(=O)OCC(C)C)C1c1ccccc1[N+](=O)[O-],303.15,0.000137,cyclohexane,C1CCCCC1,10.1021/acs.jced.9b01036
45259,Cc1c(Br)cccc1C(=O)O,303.15,0.00162,cyclohexane,C1CCCCC1,10.1021/acs.jced.9b01007
45286,CN(C)Cc1c[nH]c2ccccc12,303.15,0.0007334,cyclohexane,C1CCCCC1,10.1021/acs.jced.9b01063
45295,O=Cc1ccc(O)c(Br)c1,303.15,0.0007658,cyclohexane,C1CCCCC1,10.1021/acs.jced.9b01004
45305,Nc1ccc(Cl)cc1[N+](=O)[O-],303.15,0.000613,cyclohexane,C1CCCCC1,10.1021/acs.jced.9b00919
45315,Nc1c(Cl)cc([N+](=O)[O-])cc1Cl,303.15,0.0003894,cyclohexane,C1CCCCC1,10.1021/acs.jced.9b00778
45325,CN(C)[C@@H]1C(=O)C(C(N)=O)=C(O)[C@@]2(O)C(=O)C3=C(O)c4c(O)cccc4C[C@H]3C[C@@H]12,303.15,3.031e-05,cyclohexane,C1CCCCC1,10.1021/acs.jced.9b00693
45331,N[C@H](Cc1c[nH]cn1)C(=O)O,303.15,0.0007143,cyclohexane,C1CCCCC1,10.1021/acs.jced.9b00659
45342,O=C(Nc1ccc(F)cc1F)c1cccnc1Oc1cccc(C(F)(F)F)c1,303.15,0.0004584,cyclohexane,C1CCCCC1,10.1021/acs.jced.8b00632
45352,OCc1ccc(O[C@@H]2O[C@H](CO)[C@@H](O)[C@H](O)[C@H]2O)cc1,303.15,0.002612,cyclohexane,C1CCCCC1,10.1021/acs.jced.9b00286
45359,N=C(N)NC(N)=S,303.15,7e-05,cyclohexane,C1CCCCC1,10.1021/acs.jced.9b00458
45369,O=C1C=CC(=O)N1c1ccccc1Br,303.15,0.004865,cyclohexane,C1CCCCC1,10.1021/acs.jced.9b00560
45379,Sc1nc2ccccc2[nH]1,303.15,1.49e-05,cyclohexane,C1CCCCC1,10.1021/acs.jced.9b00190
45386,Cc1c(C(=O)O)cc([N+](=O)[O-])cc1[N+](=O)[O-],303.15,3.638e-05,cyclohexane,C1CCCCC1,10.1021/acs.jced.9b00497
45397,CN(C)/C=C/C(=O)c1cccnc1,303.15,0.00228,cyclohexane,C1CCCCC1,10.1021/acs.jced.9b00047
45407,N#CCc1ccccc1[N+](=O)[O-],303.15,0.05201,cyclohexane,C1CCCCC1,10.1021/acs.jced.9b00243
45418,Cc1cccc(C(=O)O)c1N,303.15,0.0002704,cyclohexane,C1CCCCC1,10.1021/acs.jced.8b01226
45435,CC(=O)N(CC(O)CO)c1c(I)c(C(=O)NCC(O)CO)c(I)c(C(=O)NCC(O)CO)c1I,303.15,2.508e-05,cyclohexane,C1CCCCC1,10.1021/acs.jced.8b01101
45444,CCOC(=O)C1=C[C@]2(CC)CCCN3CCc4c(n1c1ccccc41)[C@@H]32,303.15,0.0034599,cyclohexane,C1CCCCC1,10.1021/acs.jced.8b00663
45453,N#CCc1ccc([N+](=O)[O-])cc1,303.15,0.0002086,cyclohexane,C1CCCCC1,10.1021/acs.jced.8b00811
45464,CC[C@@H](C(N)=O)N1CCCC1=O,303.15,4.907e-05,cyclohexane,C1CCCCC1,10.1021/acs.jced.8b00720
45473,N#Cc1cccc([N+](=O)[O-])c1,303.15,0.0009699,cyclohexane,C1CCCCC1,10.1021/acs.jced.7b00615
45483,Nc1nc(Cl)cc(Cl)n1,303.15,0.0001152,cyclohexane,C1CCCCC1,10.1021/acs.jced.8b00292
45491,O=c1nc[nH]c2[nH]ncc12,303.15,1.241e-06,cyclohexane,C1CCCCC1,10.1021/acs.jced.8b00430
45502,Cc1cc(C)nc(Nc2ccccc2)n1,303.15,0.01572,cyclohexane,C1CCCCC1,10.1021/acs.jced.8b00124
45511,CC(=O)c1cccc([N+](=O)[O-])c1,303.15,0.003332,cyclohexane,C1CCCCC1,10.1021/acs.jced.8b00192
45519,CC(=O)c1ccc([N+](=O)[O-])cc1,303.15,0.004226,cyclohexane,C1CCCCC1,10.1021/acs.jced.8b00192
45527,O=C(O)Cc1ccccc1Cl,303.15,0.006014,cyclohexane,C1CCCCC1,10.1021/acs.jced.8b00139
45535,O=C(c1ccccc1)C(O)c1ccccc1,303.15,0.001748,cyclohexane,C1CCCCC1,10.1021/acs.jced.7b00743
45542,C[C@@H]1O[C@@H]1P(=O)([O-])[O-].[Na+].[Na+],303.15,0.0002255,cyclohexane,C1CCCCC1,10.1021/acs.jced.7b00638