,SMILES,"T,K",Solubility,Solvent,SMILES_Solvent,Source
50976,[NH3+]O.[NH3+]O.[O-]n1nnnc1-c1nnnn1[O-],303.15,0.0002503,formic acid,O=CO,10.1021/acs.jced.6b00009
50996,Nc1ccc(S(=O)(=O)O)cc1,303.15,0.00166,formic acid,O=CO,10.1021/je500867u
51007,c1ccc2c(c1)sc1ccccc12,303.15,0.000995,formic acid,O=CO,10.1021/je500437m
51018,CNC(=O)c1cc(Oc2ccc(N)cc2)ccn1,303.15,0.03205,acetylacetone,CC(=O)CC(C)=O,10.1021/acs.jced.1c00232
51026,Cc1ccc[n+](CCCC[n+]2cccc(C)c2)c1.F[P-](F)(F)(F)(F)F.F[P-](F)(F)(F)(F)F,303.15,0.002818,acetylacetone,CC(=O)CC(C)=O,10.1021/je9010954
51047,Cc1ccc[n+](C[n+]2cccc(C)c2)c1.F[P-](F)(F)(F)(F)F.F[P-](F)(F)(F)(F)F,303.15,0.000336,acetylacetone,CC(=O)CC(C)=O,10.1021/je900627q
51069,CCO.C[C@H]1c2cccc(O)c2C(O)=C2C(=O)[C@]3(O)C(O)=C(C(N)=O)C(=O)[C@@H](N(C)C)[C@@H]3[C@@H](O)[C@@H]21.C[C@H]1c2cccc(O)c2C(O)=C2C(=O)[C@]3(O)C(O)=C(C(N)=O)C(=O)[C@@H](N(C)C)[C@@H]3[C@@H](O)[C@@H]21.Cl.Cl.O,303.15,0.000865,propionic acid,CCC(=O)O,10.1021/acs.jced.0c00097
51078,CS(=O)(=O)c1ccc([C@@H](O)[C@@H](CF)NC(=O)C(Cl)Cl)cc1,303.15,0.0007303,propionic acid,CCC(=O)O,10.1021/acs.jced.8b00043
51098,CN1COCN(Cc2cnc(Cl)s2)C1=N[N+](=O)[O-],303.15,0.003285,propionic acid,CCC(=O)O,10.1016/j.jct.2020.106116
51108,Nc1nc(N)nc(NC2CC2)n1,303.15,0.01229,propionic acid,CCC(=O)O,10.1016/j.fluid.2018.07.024
51117,CCO.C[C@H]1c2cccc(O)c2C(O)=C2C(=O)[C@]3(O)C(O)=C(C(N)=O)C(=O)[C@@H](N(C)C)[C@@H]3[C@@H](O)[C@@H]21.C[C@H]1c2cccc(O)c2C(O)=C2C(=O)[C@]3(O)C(O)=C(C(N)=O)C(=O)[C@@H](N(C)C)[C@@H]3[C@@H](O)[C@@H]21.Cl.Cl.O,303.15,0.028628,acrylic acid,C=CC(=O)O,10.1021/acs.jced.0c00097
51124,Nc1nc(N)nc(NC2CC2)n1,303.15,0.04921,acrylic acid,C=CC(=O)O,10.1016/j.fluid.2018.07.024
51140,Nc1ccc(C(=O)O)cc1.[K],303.15,0.104,formamide,NC=O,10.1021/acs.jced.7b00978
51168,CO/N=C(\C(=O)N[C@@H]1C(=O)N2C(C(=O)[O-])=C(COC(C)=O)CS[C@H]12)c1csc(N)n1.[Na+],303.15,0.070191,formamide,NC=O,10.1021/je600564q
51175,NCCCC(=O)O,303.15,0.02191,formamide,NC=O,10.1016/j.jct.2016.07.014
51202,COc1ccc(Cl)cc1C(=O)NCCc1ccc(S(=O)(=O)NC(=O)NC2CCCCC2)cc1,303.15,0.00042597,MIBK,CC(=O)CC(C)C,10.1021/acs.jced.8b00717
51250,O=[N+]([O-])N(CCO)CCO.O=[N+]([O-])O.O=[N+]([O-])O,303.15,0.64065,"1,2-dichloroethane",ClCCCl,10.1021/acs.jced.0c00211
51267,CC1(C)COP(=O)(Oc2cccc(OP3(=O)OCC(C)(C)CO3)c2)OC1,303.15,0.0233,"1,2-dichloroethane",ClCCCl,10.1021/acs.jced.7b00695
51275,NNC(=O)NN.O=[N+]([O-])NC1=NC(C2N=NC(N[N+](=O)[O-])=N2)N=N1,303.15,1.91e-05,"1,2-dichloroethane",ClCCCl,10.1021/acs.jced.9b00275
51289,CC1(C)COP(=O)(C(Nc2ccccc2)c2ccccc2)OC1,303.15,0.02292,"1,2-dichloroethane",ClCCCl,10.1021/acs.jced.7b00585
51301,O=C(O)Cc1cccc2ccccc12,303.15,0.0914,"1,2-dichloroethane",ClCCCl,10.1021/acs.jced.6b00816
51311,Cc1ccc(NC(=O)/C(=C/Cl)Sc2ccccc2)cc1,303.15,0.0942,"1,2-dichloroethane",ClCCCl,10.1021/acs.jced.7b01011
51328,CC1(C)COP(=O)(C(C)(O)c2ccccc2)OC1,303.15,0.00258,"1,2-dichloroethane",ClCCCl,10.1021/je500806u
51340,CC1(C)COP(=O)(C(C)(C)O)OC1,303.15,0.00308,"1,2-dichloroethane",ClCCCl,10.1021/je4003114
51368,c1ccc2c(c1)OP1(=NP3(=NP4(=N1)Oc1ccccc1O4)Oc1ccccc1O3)O2,303.15,0.0007646,"1,2-dichloroethane",ClCCCl,10.1021/je200252c
51395,N[C@@H](Cc1ccc([N+](=O)[O-])cc1[N+](=O)[O-])C(=O)O,303.15,1.051e-07,"1,2-dichloroethane",ClCCCl,10.1021/je100352r
51412,CCN1CCN(c2cc3c(cc2F)c(=O)cc(C(=O)[O-])n3C2CC2)CC1.[Na+],303.15,0.00656,"1,2-dichloroethane",ClCCCl,10.1021/je8005826
51442,Cc1ccc(N)c([N+](=O)[O-])c1,303.15,0.06921,"1,2-dichloroethane",ClCCCl,10.1016/j.jct.2017.02.008
51452,Oc1c(Br)cc(Br)c2cccnc12,303.15,0.01252,"N,N-dimethylaniline",CN(C)c1ccccc1,10.1021/acs.jced.9b01190
51513,O=C(NC[C@H]1CN(c2ccc(N3CCOCC3=O)cc2)C(=O)O1)c1ccc(Cl)s1,303.15,9.39e-05,3-pentanone,CCC(=O)CC,10.1016/j.jct.2016.09.036
51556,CC(C)COc1ccc(B(O)O)cc1,303.15,0.0416,dipropyl ether,CCCOCCC,10.1021/acs.jced.0c00468
51601,O=[N+]([O-])N1CN([N+](=O)[O-])CN([N+](=O)[O-])CN([N+](=O)[O-])C1,303.15,0.061,triethyl phosphate,CCOP(=O)(OCC)OCC,10.1021/acs.jced.9b01192
51614,O=[N+]([O-])N1CN([N+](=O)[O-])CN([N+](=O)[O-])CN([N+](=O)[O-])C1,303.15,0.0406,gamma-Butyrolactone,O=C1CCCO1,10.1021/acs.jced.9b01192
51627,O=C1O[B-]2(OC1=O)OC(=O)C(=O)O2.[Li+],303.15,0.07962,gamma-Butyrolactone,O=C1CCCO1,10.1021/je500068b
51638,O=C1CCC(=O)O1,303.15,0.283,gamma-Butyrolactone,O=C1CCCO1,10.1016/j.jct.2016.09.025
51654,O=[N+]([O-])N1CN([N+](=O)[O-])CN([N+](=O)[O-])CN([N+](=O)[O-])C1,303.15,0.0201,propylene carbonate,CC1COC(=O)O1,10.1021/acs.jced.9b01192
51674,O=[N+]([O-])N1CN([N+](=O)[O-])CN([N+](=O)[O-])CN([N+](=O)[O-])C1,303.15,0.0048,cyclopentanone,O=C1CCCC1,10.1021/acs.jced.9b01192
51709,O=[N+]([O-])N1CN([N+](=O)[O-])CN([N+](=O)[O-])CN([N+](=O)[O-])C1,303.15,0.0019,pyridine,c1ccncc1,10.1021/acs.jced.9b01192
51761,CN(C)Cc1c[nH]c2ccccc12,303.15,0.0021633,2-pentanol,CCCC(C)O,10.1021/acs.jced.9b01063
51770,Cn1cc([N+](=O)[O-])cn1,303.15,0.001415,2-pentanol,CCCC(C)O,10.1016/j.fluid.2018.05.023
51779,CN1CCN(c2c(F)cc3c(=O)c(C(=O)O)cn4c3c2OCN4C)CC1,303.15,0.0001403,tert-amyl alcohol,CCC(C)(C)O,10.1021/acs.jced.9b00490
51789,Cc1ccc(NC(=O)/C(=C/Cl)Sc2ccccc2)cc1,303.15,0.005,tert-amyl alcohol,CCC(C)(C)O,10.1021/acs.jced.7b01011
51797,O=C1OC(=O)c2c(Cl)cccc21,303.15,0.01131,tert-amyl alcohol,CCC(C)(C)O,10.1021/acs.jced.5b00526
51807,O=C1OC(=O)c2cc(Cl)ccc21,303.15,0.02189,tert-amyl alcohol,CCC(C)(C)O,10.1021/acs.jced.5b00526
51813,COC(=O)/C=C/c1ccc(O)cc1,303.15,0.1156,tert-amyl alcohol,CCC(C)(C)O,10.1021/je9004382
51818,COC(=O)/C=C/c1ccc(O)c(OC)c1,303.15,0.2153,tert-amyl alcohol,CCC(C)(C)O,10.1021/je9004382
51823,COC(=O)/C=C/c1cc(OC)c(O)c(OC)c1,303.15,0.0264,tert-amyl alcohol,CCC(C)(C)O,10.1021/je9004382
51838,O=P(O)(O)c1ccccc1,303.15,0.39737,2-methoxyethanol,COCCO,10.1021/acs.jced.9b00362
51867,C=C(C)[C@@H]1CC[C@]2(C(=O)O)CC[C@]3(C)[C@H](CC[C@@H]4[C@@]5(C)CCC(=O)C(C)(C)[C@@H]5CC[C@]43C)[C@@H]12,303.15,0.01174,2-methoxyethanol,COCCO,10.1021/acs.jced.5b00122
51876,CC(C(=O)O)c1ccc2c(c1)CC(=O)c1ccccc1S2,303.15,0.07401,2-methoxyethanol,COCCO,10.1021/acs.jced.9b01180
51885,Nc1nc2ccc(OC(F)(F)F)cc2s1,303.15,0.43623,2-methoxyethanol,COCCO,10.1016/j.jct.2021.106569
51896,CN1CCN(C2=Nc3cc(Cl)ccc3Nc3ccccc32)CC1,303.15,0.0451,2-methoxyethanol,COCCO,10.1016/j.jct.2021.106398
51906,O=c1cc(CO)occ1O,303.15,0.03771,2-methoxyethanol,COCCO,10.1016/j.jct.2020.106280
51916,N#Cc1ccc2c(c1)OCO2,303.15,0.1194,2-methoxyethanol,COCCO,10.1016/j.jct.2020.106191
51926,CN1COCN(Cc2cnc(Cl)s2)C1=N[N+](=O)[O-],303.15,0.01846,2-methoxyethanol,COCCO,10.1016/j.jct.2020.106116
51936,CNC[C@H](O)c1cccc(O)c1.Cl,303.15,0.1606,2-methoxyethanol,COCCO,10.1016/j.jct.2019.105959
51951,O=P(O)(O)c1ccccc1,303.15,0.36272,2-ethoxyethanol,CCOCCO,10.1021/acs.jced.9b00362
51988,CP(=O)(O)c1ccccc1,303.15,0.2889,2-ethoxyethanol,CCOCCO,10.1021/je1009812
52130,CC(C(=O)O)c1ccc2c(c1)CC(=O)c1ccccc1S2,303.15,0.07789,2-ethoxyethanol,CCOCCO,10.1021/acs.jced.9b01180
52140,CN1CCN(C2=Nc3cc(Cl)ccc3Nc3ccccc32)CC1,303.15,0.04993,2-ethoxyethanol,CCOCCO,10.1016/j.jct.2021.106398
52150,O=c1cc(CO)occ1O,303.15,0.02613,2-ethoxyethanol,CCOCCO,10.1016/j.jct.2020.106280
52160,CN1COCN(Cc2cnc(Cl)s2)C1=N[N+](=O)[O-],303.15,0.008389,2-ethoxyethanol,CCOCCO,10.1016/j.jct.2020.106116
52170,CNC[C@H](O)c1cccc(O)c1.Cl,303.15,0.06536,2-ethoxyethanol,CCOCCO,10.1016/j.jct.2019.105959
52180,O=C1NC(=O)C2C3C=CC(C3)C12,303.15,0.038393,2-ethoxyethanol,CCOCCO,10.1016/j.fluid.2019.112301
52189,Nc1ccc(Oc2ccc(N)cc2)cc1,303.15,0.035846,2-ethoxyethanol,CCOCCO,10.1016/j.fluid.2013.07.010
52204,O=P(O)(O)c1ccccc1,303.15,0.30747,2-propoxyethanol,CCCOCCO,10.1021/acs.jced.9b00362
52221,C=C(C)[C@@H]1CC[C@]2(C(=O)O)CC[C@]3(C)[C@H](CC[C@@H]4[C@@]5(C)CCC(=O)C(C)(C)[C@@H]5CC[C@]43C)[C@@H]12,303.15,0.02878,2-propoxyethanol,CCCOCCO,10.1021/acs.jced.5b00122
52229,Nc1nc2ccc(OC(F)(F)F)cc2s1,303.15,0.50437,2-propoxyethanol,CCCOCCO,10.1016/j.jct.2021.106569
52240,CN1CCN(C2=Nc3cc(Cl)ccc3Nc3ccccc32)CC1,303.15,0.05483,2-propoxyethanol,CCCOCCO,10.1016/j.jct.2021.106398
52250,CNC[C@H](O)c1cccc(O)c1.Cl,303.15,0.02441,2-propoxyethanol,CCCOCCO,10.1016/j.jct.2019.105959
52265,O=P(O)(O)c1ccccc1,303.15,0.20198,n-hexanol,CCCCCCO,10.1021/acs.jced.9b00362
52286,Cc1c(C(=O)O)cc([N+](=O)[O-])cc1[N+](=O)[O-],303.15,0.01507,n-hexanol,CCCCCCO,10.1021/acs.jced.9b00497
52297,COc1cc(C(=O)O)cc(OC)c1O,303.15,0.0048,n-hexanol,CCCCCCO,10.1021/acs.jced.7b00333
52312,On1nnc2ccccc21,303.15,0.01738,n-hexanol,CCCCCCO,10.1021/acs.jced.7b00316
52322,O=c1nc[nH]c2[nH]ncc12,303.15,0.0002138,n-hexanol,CCCCCCO,10.1021/acs.jced.8b00430
52333,CCCCC1C(=O)N(c2ccccc2)N(c2ccccc2)C1=O,303.15,0.01253,n-hexanol,CCCCCCO,10.1021/acs.jced.6b00911
52399,CCCCN(CCCC)CC(O)c1cc(Cl)cc2c1-c1ccc(Cl)cc1/C2=C/c1ccc(Cl)cc1,303.15,0.001193,n-hexanol,CCCCCCO,10.1016/j.jct.2020.106323
52408,Cl.c1ccc([C@H]2CN3CCSC3=N2)cc1,303.15,0.002264,n-hexanol,CCCCCCO,10.1016/j.jct.2019.105882
52426,CC(C)(C)C(=O)C(Oc1ccc(Cl)cc1)n1ccnc1,303.15,0.1642,n-hexanol,CCCCCCO,10.1016/j.jct.2014.04.011
52434,Nc1nc(N)nc(NC2CC2)n1,303.15,0.001234,n-hexanol,CCCCCCO,10.1016/j.fluid.2018.07.024
52451,O=C(O)CN(CC(=O)O)CP(=O)(O)O,303.15,0.001156,n-hexanol,CCCCCCO,10.1016/j.fluid.2014.08.036
52468,O=P(O)(O)c1ccccc1,303.15,0.2575,2-butoxyethanol,CCCCOCCO,10.1021/acs.jced.9b00362
52485,CNC[C@H](O)c1cccc(O)c1.Cl,303.15,0.01605,2-butoxyethanol,CCCCOCCO,10.1016/j.jct.2019.105959
52503,O=C(O)c1ccccc1,303.15,0.179,n-pentyl acetate,CCCCCOC(C)=O,10.1021/acs.jced.8b00025
52509,Nc1nc2ccc(OC(F)(F)F)cc2s1,303.15,0.39541,n-pentyl acetate,CCCCCOC(C)=O,10.1016/j.jct.2021.106569
52524,CN1CCN(C2=Nc3cc(Cl)ccc3Nc3ccccc32)CC1,303.15,0.02214,n-pentyl acetate,CCCCCOC(C)=O,10.1016/j.jct.2021.106398
52533,CC(=O)Nc1ccc(OC(=O)c2ccccc2OC(C)=O)cc1,303.15,0.0009828,n-pentyl acetate,CCCCCOC(C)=O,10.1016/j.jct.2020.106365
52543,CCCCN(CCCC)CC(O)c1cc(Cl)cc2c1-c1ccc(Cl)cc1/C2=C/c1ccc(Cl)cc1,303.15,0.01678,n-pentyl acetate,CCCCCOC(C)=O,10.1016/j.jct.2020.106323
52553,O=C(O)CCc1nc(-c2ccccc2)c(-c2ccccc2)o1,303.15,0.00654,n-pentyl acetate,CCCCCOC(C)=O,10.1016/j.jct.2020.106239
52582,O=C(O)c1ccccc1,303.15,0.234,2-pentanone,CCCC(C)=O,10.1021/acs.jced.8b00025
52603,O=P(Oc1ccccc1)(Oc1ccccc1)N1CCN(P(=O)(Oc2ccccc2)Oc2ccccc2)CC1,303.15,0.0005885,1-methoxy-2-propanol,COCC(C)O,10.1021/je501173n
52614,O=P(NCc1cccc(CNP(=O)(Oc2ccccc2)Oc2ccccc2)c1)(Oc1ccccc1)Oc1ccccc1,303.15,0.0009355,1-methoxy-2-propanol,COCC(C)O,10.1021/je501173n
52625,O=P12OCC(CO)(CO1)CO2,303.15,0.026921,1-methoxy-2-propanol,COCC(C)O,10.1021/je501173n
52665,N#CCc1ccccc1[N+](=O)[O-],303.15,0.06442,ethylbenzene,CCc1ccccc1,10.1021/acs.jced.9b00243
52677,N#CCc1ccc([N+](=O)[O-])cc1,303.15,0.01353,ethylbenzene,CCc1ccccc1,10.1021/acs.jced.8b00811
52690,O=C(O)Cc1ccccc1Cl,303.15,0.0853,ethylbenzene,CCc1ccccc1,10.1021/acs.jced.8b00139
52746,CC1=NN(c2ccc(C)cc2)C(=O)C1,303.15,0.02762,ethylbenzene,CCc1ccccc1,10.1016/j.jct.2016.08.007
52816,CCCCCCN1C=CN(C)C1.O=[N+]([O-])O,303.15,0.000896,p-xylene,Cc1ccccc1,10.1021/je200151j
52826,CCCCCCCCN1C=CN(C)C1.O=[N+]([O-])O,303.15,0.00331,p-xylene,Cc1ccccc1,10.1021/je200151j
52838,CC(C)(C)C(=O)C(Oc1ccc(Cl)cc1)n1cncn1,303.15,0.146843,p-xylene,Cc1ccccc1,10.1021/je901024t
52886,O=C(O)c1ccccc1,303.15,0.01,isooctane,CC(C)CC(C)(C)C,10.1021/acs.jced.8b00025
52932,CCCCCCN1C=CN(C)C1.O=[N+]([O-])O,303.15,0.000578,n-pentane,CCCCC,10.1021/je200151j
52938,CCCCCCCCN1C=CN(C)C1.O=[N+]([O-])O,303.15,0.001493,n-pentane,CCCCC,10.1021/je200151j
52959,On1nnc2ccccc21,303.15,0.01543,isooctanol,CC(C)CCCCCO,10.1021/acs.jced.7b00316
52966,CC(C)(C)c1ccc(C(=O)O)cc1,303.15,0.0277,p-tert-butyltoluene,Cc1ccc(C(C)(C)C)cc1,10.1021/acs.jced.6b00965
52975,CC(C)(C)c1ccc(C(=O)O)cc1,303.15,0.0791,methyl 4-tert-butylbenzoate,COC(=O)c1ccc(C(C)(C)C)cc1,10.1021/acs.jced.6b00965
52986,COc1ccc(CC(=O)O)cc1,303.15,0.0293,morpholine,C1COCCN1,10.1021/acs.jced.8b00271
52995,COc1ccc(CC(=O)O)cc1,303.15,0.0737,anisole,COc1ccccc1,10.1021/acs.jced.8b00271
53001,O=[N+]([O-])c1c[nH]nc1[N+](=O)[O-],303.15,0.057957,anisole,COc1ccccc1,10.1021/acs.jced.6b00219
53031,O=C(O)c1ccccc1,303.15,0.543,tributyl phosphate,CCCCOP(=O)(OCCCC)OCCCC,10.1021/acs.jced.8b00025
53041,O=C(O)c1ccccc1,303.15,0.306,diacetone alcohol,CC(=O)CC(C)(C)O,10.1021/acs.jced.8b00025
53051,CS(=O)(=O)c1ccc([C@@H](O)[C@@H](CF)NC(=O)C(Cl)Cl)cc1,303.15,0.000521,2-ethyl-n-hexanol,CCCCC(CC)CO,10.1021/acs.jced.8b00043
53061,Cc1ccc(NC(=O)/C(=C/Cl)Sc2ccccc2)cc1,303.15,0.0858,2-methyltetrahydrofuran,CC1CCCO1,10.1021/acs.jced.7b01011
53070,O=[N+]([O-])N1C2C3N([N+](=O)[O-])C1C1N([N+](=O)[O-])C(C(N1[N+](=O)[O-])N3[N+](=O)[O-])N2[N+](=O)[O-],303.15,0.0001472,m-xylene,Cc1cccc(C)c1,10.1021/acs.jced.6b00761
53076,CCCCCCN1C=CN(C)C1.O=[N+]([O-])O,303.15,0.002715,m-xylene,Cc1cccc(C)c1,10.1021/je200151j
53086,CCCCCCCCN1C=CN(C)C1.O=[N+]([O-])O,303.15,0.005655,m-xylene,Cc1cccc(C)c1,10.1021/je200151j
53137,O=[N+]([O-])N1C2C3N([N+](=O)[O-])C1C1N([N+](=O)[O-])C(C(N1[N+](=O)[O-])N3[N+](=O)[O-])N2[N+](=O)[O-],303.15,0.044295,triethyl orthoformate,CCOC(OCC)OCC,10.1021/acs.jced.6b00761
53150,O=C1NC(=O)c2cc([N+](=O)[O-])ccc21,303.15,0.02944,benzyl alcohol,OCc1ccccc1,10.1021/acs.jced.6b00230
53163,O=Cc1ccc(C=O)cc1,303.15,0.1178,benzyl alcohol,OCc1ccccc1,10.1016/j.jct.2016.07.013
53273,O=C(O)COc1ccc(Cl)cc1Cl,303.15,0.0747,isobutyl acetate,CC(=O)OCC(C)C,10.1016/j.jct.2021.106589
53279,CN1C(C(=O)Nc2ccccn2)=C(O)c2sccc2S1(=O)=O,303.15,0.000235,propylene glycol,CC(O)CO,10.1021/acs.jced.5b00382
53304,COc1ccc([C@@H]2CC(=O)c3c(O)cc(O[C@@H]4O[C@H](CO[C@@H]5O[C@@H](C)[C@H](O)[C@@H](O)[C@H]5O)[C@@H](O)[C@H](O)[C@H]4O)cc3O2)cc1O,303.15,0.000647,propylene glycol,CC(O)CO,10.1021/je500206w
53314,CN1CC(=O)N2C(CC3c4ccccc4NC3C2C2CCC3OCOC3C2)C1=O,303.15,0.000507,propylene glycol,CC(O)CO,10.1021/je400982r
53388,O=C(Nc1ccc(F)cc1F)c1cccnc1Oc1cccc(C(F)(F)F)c1,303.15,0.0001289,propylene glycol,CC(O)CO,10.1021/acs.jced.0c00631
53398,COc1c(C)c2c(c(O)c1C/C=C(\C)CCC(=O)OCCN1CCOCC1)C(=O)OC2,303.15,0.001225,propylene glycol,CC(O)CO,10.1021/acs.jced.9b01139
53407,c1ccc(-c2ccc(C(c3ccccc3)n3ccnc3)cc2)cc1,303.15,0.007073,propylene glycol,CC(O)CO,10.1021/acs.jced.9b00097
53416,COc1cc2c(cc1OC)-c1cc3ccc(OC)c(OC)c3c[n+]1CC2.[Cl-],303.15,3.123e-05,propylene glycol,CC(O)CO,10.1021/acs.jced.8b01055
53427,C[C@@H]1CC[C@H]2[C@@H](C)[C@H](OC(=O)CCC(=O)O)O[C@@H]3O[C@@]4(C)CC[C@@H]1[C@@]23OO4,303.15,0.002374,propylene glycol,CC(O)CO,10.1021/acs.jced.8b00988
53433,COc1ccc([C@@H]2CC(=O)c3c(O)cc(O[C@@H]4O[C@H](CO[C@@H]5O[C@@H](C)[C@H](O)[C@@H](O)[C@H]5O)[C@@H](O)[C@H](O)[C@H]4O)cc3O2)cc1O,303.15,0.000647,propylene glycol,CC(O)CO,10.1021/acs.jced.7b00948
53442,COc1c(O)cc2c(c1O)[C@@H]1O[C@H](CO)[C@@H](O)[C@H](O)[C@H]1OC2=O,303.15,0.00873,propylene glycol,CC(O)CO,10.1016/j.jct.2016.05.003
53450,NCCCC(=O)O,303.15,0.03232,propylene glycol,CC(O)CO,10.1016/j.jct.2016.07.014
53456,CC1(C)CCC2=C(O1)c1ccccc1C(=O)C2=O,303.15,0.00308,propylene glycol,CC(O)CO,10.1016/j.fluid.2018.05.005
53461,CN1C(C(=O)Nc2ccccn2)=C(O)c2sccc2S1(=O)=O,303.15,0.0131,PEG-400,-,10.1021/acs.jced.5b00382
53486,COc1ccc([C@@H]2CC(=O)c3c(O)cc(O[C@@H]4O[C@H](CO[C@@H]5O[C@@H](C)[C@H](O)[C@@H](O)[C@H]5O)[C@@H](O)[C@H](O)[C@H]4O)cc3O2)cc1O,303.15,0.00749,PEG-400,-,10.1021/je500206w
53496,CN1CC(=O)N2C(CC3c4ccccc4NC3C2C2CCC3OCOC3C2)C1=O,303.15,0.02143,PEG-400,-,10.1021/je400982r
53502,COc1c(O)cc2c(c1O)[C@@H]1O[C@H](CO)[C@@H](O)[C@H](O)[C@H]1OC2=O,303.15,0.0277,PEG-400,-,10.1016/j.jct.2016.05.003
53507,CN1C(C(=O)Nc2ccccn2)=C(O)c2sccc2S1(=O)=O,303.15,0.00202,transcutol,CCOCCOCCO,10.1021/acs.jced.5b00382
53532,CN1CC(=O)N2C(CC3c4ccccc4NC3C2C2CCC3OCOC3C2)C1=O,303.15,0.00973,transcutol,CCOCCOCCO,10.1021/je400982r
53543,CC(=O)Nc1ccc(O)cc1,303.15,0.1185,transcutol,CCOCCOCCO,10.1021/je4008525
53551,COc1c(O)cc2c(c1O)[C@@H]1O[C@H](CO)[C@@H](O)[C@H](O)[C@H]1OC2=O,303.15,0.0166,transcutol,CCOCCOCCO,10.1016/j.jct.2016.05.003
53557,O=P(Oc1ccccc1)(Oc1ccccc1)N1CCN(P(=O)(Oc2ccccc2)Oc2ccccc2)CC1,303.15,0.0005643,1-propoxy-2-propanol,CCCOCC(C)O,10.1021/je501173n
53568,O=P(NCc1cccc(CNP(=O)(Oc2ccccc2)Oc2ccccc2)c1)(Oc1ccccc1)Oc1ccccc1,303.15,0.0007656,1-propoxy-2-propanol,CCCOCC(C)O,10.1021/je501173n
53579,O=P12OCC(CO)(CO1)CO2,303.15,0.0033414,1-propoxy-2-propanol,CCCOCC(C)O,10.1021/je501173n
53590,O=P(Oc1ccccc1)(Oc1ccccc1)N1CCN(P(=O)(Oc2ccccc2)Oc2ccccc2)CC1,303.15,0.0005172,1-methoxy-2-propyl acetate,COCC(C)OC(C)=O,10.1021/je501173n
53601,O=P(NCc1cccc(CNP(=O)(Oc2ccccc2)Oc2ccccc2)c1)(Oc1ccccc1)Oc1ccccc1,303.15,0.0043041,1-methoxy-2-propyl acetate,COCC(C)OC(C)=O,10.1021/je501173n
53612,O=P12OCC(CO)(CO1)CO2,303.15,0.0011312,1-methoxy-2-propyl acetate,COCC(C)OC(C)=O,10.1021/je501173n
53623,O=P(Oc1ccccc1)(Oc1ccccc1)N1CCN(P(=O)(Oc2ccccc2)Oc2ccccc2)CC1,303.15,0.0013929,2-(2-methoxypropoxy) propanol,COC(C)COC(C)COC(C)CO,10.1021/je501173n
53634,O=P(NCc1cccc(CNP(=O)(Oc2ccccc2)Oc2ccccc2)c1)(Oc1ccccc1)Oc1ccccc1,303.15,0.0040132,2-(2-methoxypropoxy) propanol,COC(C)COC(C)COC(C)CO,10.1021/je501173n
53645,O=P12OCC(CO)(CO1)CO2,303.15,0.015132,2-(2-methoxypropoxy) propanol,COC(C)COC(C)COC(C)CO,10.1021/je501173n
53657,O=[N+]([O-])N1CN2CN(C1)CN([N+](=O)[O-])C2,303.15,1.22858e-08,"1,1-dichloroethane",CC(Cl)Cl,10.1021/acs.jced.5b00033
53662,CCCCCCN1C=CN(C)C1.O=[N+]([O-])O,303.15,0.000268,n-octane,CCCCCCCC,10.1021/je200151j
53673,CCCCCCCCN1C=CN(C)C1.O=[N+]([O-])O,303.15,0.000502,n-octane,CCCCCCCC,10.1021/je200151j
53713,CCCCCCN1C=CN(C)C1.O=[N+]([O-])O,303.15,0.00145,o-xylene,Cc1ccccc1C,10.1021/je200151j
53723,CCCCCCCCN1C=CN(C)C1.O=[N+]([O-])O,303.15,0.00529,o-xylene,Cc1ccccc1C,10.1021/je200151j
53746,c1ccc2oc(CSCc3nc4ccccc4o3)nc2c1,303.15,0.00305,o-xylene,Cc1ccccc1C,10.1021/je8005419
53786,O=C(O)c1ccccc1,303.15,0.0853,o-xylene,Cc1ccccc1C,10.1016/j.jct.2020.106234
53799,c1ccc2c(c1)oc1ccccc12,303.15,0.1832,diisopropyl ether,CC(C)OC(C)C,10.1021/je201282d
53810,O=C1c2ccccc2-c2ccccc21,303.15,0.0642,diisopropyl ether,CC(C)OC(C)C,10.1021/je201282d
53861,Cc1ccc[n+](CCCC[n+]2cccc(C)c2)c1.F[P-](F)(F)(F)(F)F.F[P-](F)(F)(F)(F)F,303.15,0.001025,acetophenone,CC(=O)c1ccccc1,10.1021/je9010954
53886,O=C(O)c1ccc(C(=O)O)cc1,303.15,1.07e-05,acetophenone,CC(=O)c1ccccc1,10.1021/je9001976
53896,O=C(O)c1cccc(C(=O)O)c1,303.15,0.0007249,acetophenone,CC(=O)c1ccccc1,10.1021/je9001976
53914,O=C(O)c1cccc(C(=O)O)c1,303.15,0.002929,"1,2-diethoxyethane",CCOCCOCC,10.1021/je9001976
54110,Nc1cc(Cl)ccc1C(=O)O,303.15,0.0004182,ethyl benzene,CCc1ccccc1,10.1016/j.jct.2016.11.019
54121,COc1cc(Cl)nc(N)n1,303.15,0.002385,ethyl benzene,CCc1ccccc1,10.1016/j.jct.2016.10.020
54132,O=C(NC[C@H]1CN(c2ccc(N3CCOCC3=O)cc2)C(=O)O1)c1ccc(Cl)s1,303.15,6.27e-05,2-hexanone,CCCCC(C)=O,10.1016/j.jct.2016.09.036
54204,NCCCC(=O)O,303.15,0.009136,"1,3-propanediol",OCCCO,10.1016/j.jct.2016.07.014
54258,Cc1nc2n(c(=O)c1CCN1CCC(c3noc4cc(F)ccc34)CC1)CCCC2,303.15,0.00309,cumene,CC(C)c1ccccc1,10.1016/j.fluid.2014.04.028