,SMILES,"T,K",Solubility,Solvent,SMILES_Solvent,Source
30449,Nc1ccc([N+](=O)[O-])cc1N,303.15,0.001271,isopropanol,CC(C)O,10.1016/j.jct.2016.11.014
30466,Nc1cc(Cl)ccc1C(=O)O,303.15,0.02107,isopropanol,CC(C)O,10.1016/j.jct.2016.11.019
30481,CC(C)(C)C(O)(CCc1ccc(Cl)cc1)Cn1cncn1,303.15,0.03279,isopropanol,CC(C)O,10.1016/j.jct.2016.11.032
30496,Cc1cc([N+](=O)[O-])ccc1N,303.15,0.01295,isopropanol,CC(C)O,10.1016/j.jct.2016.10.037
30513,O=Cc1cccc([N+](=O)[O-])c1,303.15,0.03495,isopropanol,CC(C)O,10.1016/j.jct.2016.10.040
30522,Cn1cnc([N+](=O)[O-])c1Cl,303.15,0.002777,isopropanol,CC(C)O,10.1016/j.jct.2016.10.006
30539,CC(C)C(=O)OCC(=O)[C@@]12O[C@H](C3CCCCC3)O[C@@H]1C[C@H]1[C@@H]3CCC4=CC(=O)C=C[C@]4(C)[C@H]3[C@@H](O)C[C@@]12C,303.15,0.0359,isopropanol,CC(C)O,10.1016/j.jct.2016.10.014
30550,COc1cc(Cl)nc(N)n1,303.15,0.004603,isopropanol,CC(C)O,10.1016/j.jct.2016.10.020
30558,NC(=O)N1c2ccccc2CC(=O)c2ccccc21,303.15,0.000299,isopropanol,CC(C)O,10.1016/j.jct.2016.09.011
30566,O=Cc1ccc([N+](=O)[O-])cc1,303.15,0.008435,isopropanol,CC(C)O,10.1016/j.jct.2016.09.012
30577,Nc1nnc[nH]1,303.15,0.01914,isopropanol,CC(C)O,10.1016/j.jct.2016.09.033
30587,C[C@@H]1O[C@@H](OC[C@H]2O[C@@H](Oc3c(-c4ccc(OCCO)c(OCCO)c4)oc4cc(OCCO)cc(O)c4c3=O)[C@H](O)[C@@H](O)[C@@H]2O)[C@H](O)[C@H](O)[C@H]1O,303.15,0.000207,isopropanol,CC(C)O,10.1016/j.jct.2016.09.015
30598,O=Cc1ccc(C=O)cc1,303.15,0.01373,isopropanol,CC(C)O,10.1016/j.jct.2016.07.013
30607,C=CC(=O)N1CCC[C@@H](n2nc(-c3ccc(Oc4ccccc4)cc3)c3c(N)ncnc32)C1,303.15,0.00165,isopropanol,CC(C)O,10.1016/j.jct.2016.08.034
30622,CC1=NN(c2ccc(C)cc2)C(=O)C1,303.15,0.02814,isopropanol,CC(C)O,10.1016/j.jct.2016.08.007
30637,O=[N+]([O-])c1ccc(O)c2ncccc12,303.15,0.001287,isopropanol,CC(C)O,10.1016/j.jct.2016.04.018
30647,Cc1ccc(C(C)C)c(O)c1,303.15,0.6837,isopropanol,CC(C)O,10.1016/j.jct.2015.09.010
30658,O=C1NC(=O)c2ccccc21,303.15,0.003648,isopropanol,CC(C)O,10.1016/j.jct.2015.10.024
30669,COC(=O)N(OC)c1ccccc1COc1ccn(-c2ccc(Cl)cc2)n1,303.15,0.01019,isopropanol,CC(C)O,10.1016/j.jct.2016.05.005
30681,Cc1cccc([N+](=O)[O-])c1N,303.15,0.02487,isopropanol,CC(C)O,10.1016/j.jct.2016.05.027
30687,COc1c(O)cc2c(c1O)[C@@H]1O[C@H](CO)[C@@H](O)[C@H](O)[C@H]1OC2=O,303.15,0.00139,isopropanol,CC(C)O,10.1016/j.jct.2016.05.003
30701,O=S(=O)(c1ccc(O)cc1)c1ccccc1O,303.15,0.09634,isopropanol,CC(C)O,10.1016/j.jct.2016.07.001
30714,Cc1cc(C(=O)O)ccc1[N+](=O)[O-],303.15,0.0136,isopropanol,CC(C)O,10.1016/j.jct.2016.07.023
30727,CC(=O)O[C@H]1CC[C@@]2(C)C(=CC[C@H]3[C@@H]4CCC(=O)[C@@]4(C)CC[C@@H]32)C1,303.15,0.007737,isopropanol,CC(C)O,10.1016/j.jct.2016.01.023
30736,C#CC(C)(C)NC(=O)c1cc(Cl)cc(Cl)c1,303.15,0.00865,isopropanol,CC(C)O,10.1016/j.jct.2016.03.039
30745,C/C=C/C=C/C(=O)O,303.15,0.06836,isopropanol,CC(C)O,10.1016/j.jct.2015.02.004
30783,O=[N+]([O-])c1cccc2cccc([N+](=O)[O-])c12,303.15,0.0004818,isopropanol,CC(C)O,10.1016/j.jct.2015.07.010
30796,CC(C)(C)[C@H](O)[C@H](Cc1ccc(Cl)cc1)n1cncn1,303.15,0.01606,isopropanol,CC(C)O,10.1016/j.jct.2016.09.038
30809,CCOC(=O)Cc1c(C(=O)OCC)sc(N)c1C#N,303.15,0.01074,isopropanol,CC(C)O,10.1016/j.jct.2015.11.025
30819,O=C1c2cccc(Cl)c2C(=O)N1c1ccccc1,303.15,0.0001778,isopropanol,CC(C)O,10.1016/j.jct.2016.01.003
30836,C[C@H]1[C@H]2[C@H](C[C@H]3[C@@H]4CC=C5C[C@@H](O)CC[C@]5(C)[C@H]4CC[C@@]32C)O[C@]12CC[C@@H](C)CO2,303.15,0.001226,isopropanol,CC(C)O,10.1016/j.jct.2011.11.009
30855,Clc1ncnc2[nH]ccc12,303.15,0.01984,isopropanol,CC(C)O,10.1016/j.jct.2021.106493
30864,Nc1nc(N)nc(NC2CC2)n1,303.15,0.0009152,isopropanol,CC(C)O,10.1016/j.fluid.2018.07.024
30873,Cn1cc([N+](=O)[O-])cn1,303.15,0.004548,isopropanol,CC(C)O,10.1016/j.fluid.2018.05.023
30879,CC1(C)CCC2=C(O1)c1ccccc1C(=O)C2=O,303.15,0.00432,isopropanol,CC(C)O,10.1016/j.fluid.2018.05.005
30889,Cc1cc(C)c(C(=O)P(=O)(c2ccccc2)c2ccccc2)c(C)c1,303.15,0.2103,isopropanol,CC(C)O,10.1016/j.fluid.2018.01.015
30905,Cn1nc([N+](=O)[O-])c([N+](=O)[O-])c1[N+](=O)[O-],303.15,0.008157,isopropanol,CC(C)O,10.1016/j.fluid.2017.04.008
30914,CC(=O)NC[C@H]1CN(c2ccc(N3CCOCC3)c(F)c2)C(=O)O1,303.15,0.001498,isopropanol,CC(C)O,10.1016/j.fluid.2016.10.021
30922,Cc1cc(C)cc(OCC2CNC(=O)O2)c1,303.15,0.0075254,isopropanol,CC(C)O,10.1016/j.fluid.2015.09.013
30937,CNC[C@H](O)[C@@H](O)[C@H](O)[C@H](O)CO.Cc1c(Nc2ncccc2C(=O)O)cccc1C(F)(F)F,303.15,0.001622,isopropanol,CC(C)O,10.1016/j.fluid.2015.06.026
30948,O=c1ccc2ccccc2o1,303.15,0.06035,isopropanol,CC(C)O,10.1016/j.fluid.2015.03.022
30964,Cc1nnc(SCC2=C(C(=O)O)N3C(=O)[C@@H](NC(=O)Cn4cnnn4)[C@H]3SC2)s1,303.15,1.0824e-05,isopropanol,CC(C)O,10.1016/j.fluid.2014.12.020
30967,O=C(O)CN(CC(=O)O)CP(=O)(O)O,303.15,8.19e-05,isopropanol,CC(C)O,10.1016/j.fluid.2014.08.036
30981,CCn1c2ccccc2c2ccccc21,303.15,0.0183,isopropanol,CC(C)O,10.1016/j.fluid.2014.06.030
30991,Cc1nc2n(c(=O)c1CCN1CCC(c3noc4cc(F)ccc34)CC1)CCCC2,303.15,0.00136,isopropanol,CC(C)O,10.1016/j.fluid.2014.04.028
31001,O=C1C=CC(=O)O1,303.15,0.03205,isopropanol,CC(C)O,10.1016/j.fluid.2014.01.008
31011,CCN1CCN(C(=O)N[C@@H](C(=O)N[C@@H]2C(=O)N3C(C(=O)O)=C(CSc4nnnn4C)CS[C@H]23)c2ccc(O)cc2)C(=O)C1=O,303.15,0.0001088,isopropanol,CC(C)O,10.1016/j.fluid.2013.11.005
31019,C/C=C/C(=O)O,303.15,0.439,isopropanol,CC(C)O,10.1016/j.fluid.2013.06.038
31036,O=Cc1cc(Br)c(O)c(Br)c1,303.15,0.01605,n-octanol,CCCCCCCCO,10.1021/acs.jced.0c00376
31047,CCCSc1nc(N[C@@H]2C[C@H]2c2ccc(F)c(F)c2)c2nnn([C@@H]3C[C@H](OCCO)[C@@H](O)[C@H]3O)c2n1,303.15,0.004058,n-octanol,CCCCCCCCO,10.1021/acs.jced.0c00127
31055,Nc1ccc(S(N)(=O)=O)cc1,303.15,0.000605,n-octanol,CCCCCCCCO,10.1021/acs.jced.9b00411
31064,Nc1cccc(Cl)c1C(=O)O,303.15,0.03015,n-octanol,CCCCCCCCO,10.1021/acs.jced.0c00320
31073,Oc1ccc(OCc2ccccc2)cc1,303.15,0.02243,n-octanol,CCCCCCCCO,10.1021/acs.jced.9b00817
31082,CN(C)Cc1c[nH]c2ccccc12,303.15,0.02835,n-octanol,CCCCCCCCO,10.1021/acs.jced.9b00911
31090,O=Cc1ccc(O)c(Br)c1,303.15,0.02668,n-octanol,CCCCCCCCO,10.1021/acs.jced.9b01004
31101,CCCc1ncc(C[n+]2ccccc2C)c(N)n1.Cl.[Cl-],303.15,1.86e-05,n-octanol,CCCCCCCCO,10.1021/acs.jced.9b00999
31109,CN(C)[C@@H]1C(=O)C(C(N)=O)=C(O)[C@@]2(O)C(=O)C3=C(O)c4c(O)cccc4C[C@H]3C[C@@H]12,303.15,5.706e-05,n-octanol,CCCCCCCCO,10.1021/acs.jced.9b00693
31118,O=P(O)(O)c1ccccc1,303.15,0.16079,n-octanol,CCCCCCCCO,10.1021/acs.jced.9b00362
31140,N[C@H](Cc1c[nH]c2ccccc12)C(=O)O,303.15,2.798e-05,n-octanol,CCCCCCCCO,10.1021/acs.jced.9b00258
31152,CC(C)N1C(=O)N(c2ccccc2)CSC1=NC(C)(C)C,303.15,0.04038,n-octanol,CCCCCCCCO,10.1021/acs.jced.8b01099
31162,CCOC(=O)[C@H](CCc1ccccc1)N[C@@H](C)C(=O)O,303.15,0.003098,n-octanol,CCCCCCCCO,10.1021/acs.jced.8b00333
31172,CCOC(=O)[C@H](CCc1ccccc1)N[C@@H](C)C(=O)N1CCC[C@H]1C(=O)O.O=C(O)/C=C\C(=O)O,303.15,0.001311,n-octanol,CCCCCCCCO,10.1021/acs.jced.8b00333
31178,CC(C)(C)c1ccc(C(=O)O)cc1,303.15,0.1256,n-octanol,CCCCCCCCO,10.1021/acs.jced.6b00965
31190,O=C(c1ccccc1)c1ccccc1,303.15,0.3838,n-octanol,CCCCCCCCO,10.1021/acs.jced.8b00196
31196,Cc1ccc(N=C2SCC3CCCN2C3)cc1,303.15,0.171,n-octanol,CCCCCCCCO,10.1021/acs.jced.7b00641
31201,CCc1ccc(N=C2SCC3CCCN2C3)cc1,303.15,0.0163,n-octanol,CCCCCCCCO,10.1021/acs.jced.7b00641
31206,CC(C)c1ccc(N=C2SCC3CCCN2C3)cc1,303.15,0.164,n-octanol,CCCCCCCCO,10.1021/acs.jced.7b00641
31211,Fc1ccc(N=C2SCC3CCCN2C3)cc1,303.15,0.0354,n-octanol,CCCCCCCCO,10.1021/acs.jced.7b00641
31216,FC(F)(F)c1ccc(N=C2SCC3CCCN2C3)cc1,303.15,0.0146,n-octanol,CCCCCCCCO,10.1021/acs.jced.7b00641
31221,N#Cc1ccc(N=C2SCC3CCCN2C3)cc1,303.15,0.0131,n-octanol,CCCCCCCCO,10.1021/acs.jced.7b00641
31226,CC(=O)c1ccc(N=C2SCC3CCCN2C3)cc1,303.15,0.0118,n-octanol,CCCCCCCCO,10.1021/acs.jced.7b00641
31231,Cc1ccc(N=C2SCC3CCCN2C3)cc1Cl,303.15,0.00454,n-octanol,CCCCCCCCO,10.1021/acs.jced.7b00641
31276,Br.c1ccc(NC2=NCCC3(CCCCC3)[Se]2)cc1,303.15,0.0278,n-octanol,CCCCCCCCO,10.1021/je500363r
31281,Br.CC(C)c1ccc(NC2=NCCC3(CCCCC3)[Se]2)cc1,303.15,0.0647,n-octanol,CCCCCCCCO,10.1021/je500363r
31286,Br.Fc1ccc(NC2=NCCC3(CCCCC3)[Se]2)cc1,303.15,0.0042,n-octanol,CCCCCCCCO,10.1021/je500363r
31298,CC1COc2c(N3CCN(C)CC3)c(F)cc3c(=O)c(C(=O)O)cn1c23,303.15,7.78e-05,n-octanol,CCCCCCCCO,10.1021/je100116u
31307,CCn1cc(C(=O)O)c(=O)c2cc(F)c(N3CCNCC3)cc21,303.15,8.542e-05,n-octanol,CCCCCCCCO,10.1021/je100116u
31316,CCn1cc(C(=O)O)c(=O)c2cc(F)c(N3CCNC(C)C3)c(F)c21,303.15,3.554e-06,n-octanol,CCCCCCCCO,10.1021/je100116u
31325,O=C(O)c1cn(C2CC2)c2cc(N3CCNCC3)c(F)cc2c1=O,303.15,6.354e-07,n-octanol,CCCCCCCCO,10.1021/je100116u
31334,CCn1cc(C(=O)O)c(=O)c2cc(F)c(N3CCN(C)CC3)cc21,303.15,1.666e-06,n-octanol,CCCCCCCCO,10.1021/je100116u
31343,CCn1cc(C(=O)O)c(=O)c2cnc(N3CCNCC3)nc21,303.15,1.569e-06,n-octanol,CCCCCCCCO,10.1021/je100116u
31351,Cc1cc(C)nc(NS(=O)(=O)c2ccc(N)cc2)n1,303.15,0.000296,n-octanol,CCCCCCCCO,10.1021/je800867a
31359,COc1cc(NS(=O)(=O)c2ccc(N)cc2)nc(OC)n1,303.15,0.0001796,n-octanol,CCCCCCCCO,10.1021/je800867a
31367,COc1cnc(NS(=O)(=O)c2ccc(N)cc2)nc1,303.15,9.418e-05,n-octanol,CCCCCCCCO,10.1021/je800867a
31374,COc1cc(NS(=O)(=O)c2ccc(N)cc2)ncn1,303.15,8.677e-05,n-octanol,CCCCCCCCO,10.1021/je800867a
31381,Cc1cc(NS(=O)(=O)c2ccc(N)cc2)no1,303.15,0.001129,n-octanol,CCCCCCCCO,10.1021/je800867a
31389,Nc1ccc(S(=O)(=O)Nc2cnc3ccccc3n2)cc1,303.15,0.0001068,n-octanol,CCCCCCCCO,10.1021/je800867a
31439,O=C(O)c1ccccc1[N+](=O)[O-],303.15,0.0928,n-octanol,CCCCCCCCO,10.1021/je700677d
31492,CCCCN(CCCC)CC(O)c1cc(Cl)cc2c1-c1ccc(Cl)cc1/C2=C/c1ccc(Cl)cc1,303.15,0.001716,n-octanol,CCCCCCCCO,10.1016/j.jct.2020.106323
31548,NS(=O)(=O)Cc1noc2ccccc12,303.15,0.02176,cyclohexanone,O=C1CCCCC1,10.1021/acs.jced.0c00249
31557,CCCSc1nc(N[C@@H]2C[C@H]2c2ccc(F)c(F)c2)c2nnn([C@@H]3C[C@H](OCCO)[C@@H](O)[C@H]3O)c2n1,303.15,0.06606,cyclohexanone,O=C1CCCCC1,10.1021/acs.jced.0c00127
31584,COc1cc2nc(Cl)nc(N)c2cc1OC,303.15,0.002799,cyclohexanone,O=C1CCCCC1,10.1021/acs.jced.0c00506
31602,CC(C)(c1ccc(O)cc1)c1ccc(O)cc1,303.15,0.1945,cyclohexanone,O=C1CCCCC1,10.1021/acs.jced.0c00166
31610,CNCCC(Oc1ccc(C(F)(F)F)cc1)c1ccccc1.Cl,303.15,0.008349,cyclohexanone,O=C1CCCCC1,10.1021/acs.jced.0c00513
31615,O=[N+]([O-])N1CN([N+](=O)[O-])CN([N+](=O)[O-])CN([N+](=O)[O-])C1,303.15,0.0103,cyclohexanone,O=C1CCCCC1,10.1021/acs.jced.9b01192
31633,CCCc1ncc(C[n+]2ccccc2C)c(N)n1.Cl.[Cl-],303.15,0.0003271,cyclohexanone,O=C1CCCCC1,10.1021/acs.jced.9b00999
31651,OCc1ccc(O[C@@H]2O[C@H](CO)[C@@H](O)[C@H](O)[C@H]2O)cc1,303.15,0.00344,cyclohexanone,O=C1CCCCC1,10.1021/acs.jced.9b00286
31680,O=Cc1cc([N+](=O)[O-])ccc1O,303.15,0.01943,cyclohexanone,O=C1CCCCC1,10.1021/acs.jced.9b00232
31687,O=[N+]([O-])N1C2C3N([N+](=O)[O-])C1C1N([N+](=O)[O-])C(C(N1[N+](=O)[O-])N3[N+](=O)[O-])N2[N+](=O)[O-],303.15,0.16031,cyclohexanone,O=C1CCCCC1,10.1021/acs.jced.6b00664
31703,O=C1NC(=O)c2cc([N+](=O)[O-])ccc21,303.15,0.05062,cyclohexanone,O=C1CCCCC1,10.1021/acs.jced.6b00230
31714,O=[N+]([O-])c1cccc(S(=O)(=O)[O-])c1.[Na+],303.15,2.488e-05,cyclohexanone,O=C1CCCCC1,10.1021/acs.jced.5b00783
31723,O=[N+]([O-])c1ccc(S(=O)(=O)[O-])cc1.[Na+],303.15,0.0009383,cyclohexanone,O=C1CCCCC1,10.1021/acs.jced.5b00783
31757,Cc1ccc[n+](CCCC[n+]2cccc(C)c2)c1.F[P-](F)(F)(F)(F)F.F[P-](F)(F)(F)(F)F,303.15,0.000746,cyclohexanone,O=C1CCCCC1,10.1021/je9010954
31778,Cc1ccc[n+](C[n+]2cccc(C)c2)c1.F[P-](F)(F)(F)(F)F.F[P-](F)(F)(F)(F)F,303.15,0.00016,cyclohexanone,O=C1CCCCC1,10.1021/je900627q
31788,Cn1cc[n+](CCC[n+]2ccn(C)c2)c1.F[P-](F)(F)(F)(F)F.F[P-](F)(F)(F)(F)F,303.15,0.000443,cyclohexanone,O=C1CCCCC1,10.1021/je9006585
31796,O=C(O)c1ccc(C(=O)O)cc1,303.15,0.0001834,cyclohexanone,O=C1CCCCC1,10.1021/je9001976
31802,O=C(O)c1ccccc1C(=O)O,303.15,0.02117,cyclohexanone,O=C1CCCCC1,10.1021/je9001976
31808,O=C(O)c1cccc(C(=O)O)c1,303.15,0.003017,cyclohexanone,O=C1CCCCC1,10.1021/je9001976
31838,COCCOC(=O)C1=C(C)NC(C)=C(C(=O)OC(C)C)C1c1cccc([N+](=O)[O-])c1,303.15,0.0266,cyclohexanone,O=C1CCCCC1,10.1016/j.jct.2020.106259
31874,Cn1cc([N+](=O)[O-])cn1,303.15,0.000266,"1,2-dichlorobenzene",Clc1ccccc1Cl,10.1016/j.fluid.2018.05.023
31896,NS(=O)(=O)Cc1noc2ccccc12,303.15,0.0001597,toluene,Cc1ccccc1,10.1021/acs.jced.0c00249
31905,CC(=O)Oc1ccccc1C(=O)Nc1ncc([N+](=O)[O-])s1,303.15,0.000225,toluene,Cc1ccccc1,10.1021/acs.jced.0c00254
31913,CC(=O)Nc1ccc(OC(=O)c2ccccc2OC(C)=O)cc1,303.15,5.5e-05,toluene,Cc1ccccc1,10.1021/acs.jced.0c00301
31923,CCCSc1nc(N[C@@H]2C[C@H]2c2ccc(F)c(F)c2)c2nnn([C@@H]3C[C@H](OCCO)[C@@H](O)[C@H]3O)c2n1,303.15,0.00013,toluene,Cc1ccccc1,10.1021/acs.jced.0c00127
31932,O=C(Nc1ccccc1)c1ccccc1,303.15,0.002129,toluene,Cc1ccccc1,10.1021/acs.jced.0c00167
31940,Nc1ccc(S(N)(=O)=O)cc1,303.15,1.7e-05,toluene,Cc1ccccc1,10.1021/acs.jced.9b00411
31950,COc1cc2nc(Cl)nc(N)c2cc1OC,303.15,1.26e-05,toluene,Cc1ccccc1,10.1021/acs.jced.0c00506
31958,Nc1cccc(Cl)c1C(=O)O,303.15,0.01115,toluene,Cc1ccccc1,10.1021/acs.jced.0c00320
31968,O=C(O)c1cccc(C(=O)O)n1,303.15,0.002526,toluene,Cc1ccccc1,10.1021/acs.jced.1c00200
31978,O=c1cc(CBr)c2ccccc2[nH]1,303.15,4.3e-05,toluene,Cc1ccccc1,10.1021/acs.jced.0c00303
31985,C=CC(=O)NC(C)(C)CS(=O)(=O)O,303.15,0.04941,toluene,Cc1ccccc1,10.1021/acs.jced.0c00578
31995,O=[N+]([O-])N(CCO)CCO.O=[N+]([O-])O.O=[N+]([O-])O,303.15,0.02759,toluene,Cc1ccccc1,10.1021/acs.jced.0c00211
32003,COC(=O)C1=C(C)NC(C)=C(C(=O)OCC(C)C)C1c1ccccc1[N+](=O)[O-],303.15,0.003659,toluene,Cc1ccccc1,10.1021/acs.jced.9b01036
32010,Oc1c(Br)cc(Br)c2cccnc12,303.15,0.001437,toluene,Cc1ccccc1,10.1021/acs.jced.9b01190
32038,CN(C)Cc1c[nH]c2ccccc12,303.15,0.009047,toluene,Cc1ccccc1,10.1021/acs.jced.9b00911
32045,CN1CCN(c2c(F)cc3c(=O)c(C(=O)O)cn4c3c2OCN4C)CC1,303.15,0.0001017,toluene,Cc1ccccc1,10.1021/acs.jced.9b00490
32055,O=C(Nc1ccc(F)cc1F)c1cccnc1Oc1cccc(C(F)(F)F)c1,303.15,0.01417,toluene,Cc1ccccc1,10.1021/acs.jced.8b00632
32066,OCc1ccc(O[C@@H]2O[C@H](CO)[C@@H](O)[C@H](O)[C@H]2O)cc1,303.15,0.00378,toluene,Cc1ccccc1,10.1021/acs.jced.9b00286
32073,N=C(N)NC(N)=S,303.15,0.000174,toluene,Cc1ccccc1,10.1021/acs.jced.9b00458
32092,CC1(C)COP(=O)(Oc2cccc(OP3(=O)OCC(C)(C)CO3)c2)OC1,303.15,0.00026,toluene,Cc1ccccc1,10.1021/acs.jced.7b00695
32110,c1cc(-n2c3ccccc3c3ccccc32)cc(-n2c3ccccc3c3ccccc32)c1,303.15,0.0336,toluene,Cc1ccccc1,10.1021/acs.jced.9b00432
32118,Cc1cnc(C(=O)O)cn1,303.15,2.18e-06,toluene,Cc1ccccc1,10.1021/acs.jced.9b00406
32125,Nc1nnn[nH]1,303.15,0.002287,toluene,Cc1ccccc1,10.1021/acs.jced.9b00385
32135,Sc1nc2ccccc2[nH]1,303.15,6.38e-05,toluene,Cc1ccccc1,10.1021/acs.jced.9b00190
32142,Cc1c(C(=O)O)cc([N+](=O)[O-])cc1[N+](=O)[O-],303.15,0.02837,toluene,Cc1ccccc1,10.1021/acs.jced.9b00497
32154,N#Cc1cccc([N+](=O)[O-])c1C#N,303.15,0.002537,toluene,Cc1ccccc1,10.1021/acs.jced.8b01250
32165,O=Cc1cc([N+](=O)[O-])ccc1O,303.15,0.01793,toluene,Cc1ccccc1,10.1021/acs.jced.9b00232
32173,N#CCc1ccccc1[N+](=O)[O-],303.15,0.09683,toluene,Cc1ccccc1,10.1021/acs.jced.9b00243
32186,Nc1cc([N+](=O)[O-])ccc1Cl,303.15,0.0268,toluene,Cc1ccccc1,10.1021/acs.jced.8b00931
32195,CCOC(=O)[C@@H](C)Oc1ccc(Oc2cnc3cc(Cl)ccc3n2)cc1,303.15,0.01545,toluene,Cc1ccccc1,10.1021/acs.jced.8b01181
32203,Cc1cccc(C(=O)O)c1N,303.15,0.003821,toluene,Cc1ccccc1,10.1021/acs.jced.8b01226
32212,Nc1nc2c(ncn2COC(CO)CO)c(=O)[nH]1,303.15,3.483e-07,toluene,Cc1ccccc1,10.1021/acs.jced.8b01080
32222,Nc1cccc2c(N)cccc12,303.15,0.001015,toluene,Cc1ccccc1,10.1021/acs.jced.8b01214
32231,Nc1cccc2cccc(N)c12,303.15,0.1379,toluene,Cc1ccccc1,10.1021/acs.jced.8b01214
32238,CC(=O)N(CC(O)CO)c1c(I)c(C(=O)NCC(O)CO)c(I)c(C(=O)NCC(O)CO)c1I,303.15,6.276e-05,toluene,Cc1ccccc1,10.1021/acs.jced.8b01101
32249,CC(C)N1C(=O)N(c2ccccc2)CSC1=NC(C)(C)C,303.15,0.1498,toluene,Cc1ccccc1,10.1021/acs.jced.8b01099
32268,COc1c(N2CCNC(C)C2)c(F)cc2c(=O)c(C(=O)O)cn(C3CC3)c12,303.15,0.000344,toluene,Cc1ccccc1,10.1021/acs.jced.8b00902
32277,N#CCc1ccc([N+](=O)[O-])cc1,303.15,0.02084,toluene,Cc1ccccc1,10.1021/acs.jced.8b00811
32288,CC[C@@H](C(N)=O)N1CCCC1=O,303.15,0.003934,toluene,Cc1ccccc1,10.1021/acs.jced.8b00720
32298,N#Cc1cccc([N+](=O)[O-])c1,303.15,0.06703,toluene,Cc1ccccc1,10.1021/acs.jced.7b00615
32307,CS(=O)(=O)c1ccc([C@@H](O)[C@@H](CO)NC(=O)C(Cl)Cl)cc1,303.15,2.696e-05,toluene,Cc1ccccc1,10.1021/acs.jced.7b00542
32317,COCC(=O)Nc1c(I)c(C(=O)NCC(O)CO)c(I)c(C(=O)N(C)CC(O)CO)c1I,303.15,1.69e-05,toluene,Cc1ccccc1,10.1021/acs.jced.8b00416
32328,Nc1nc(Cl)cc(Cl)n1,303.15,0.001565,toluene,Cc1ccccc1,10.1021/acs.jced.8b00292
32342,On1nnc2ccccc21,303.15,4.282e-05,toluene,Cc1ccccc1,10.1021/acs.jced.7b00316
32349,CC(C)(C)c1ccc(C(=O)O)cc1,303.15,0.0466,toluene,Cc1ccccc1,10.1021/acs.jced.6b00965
32373,COc1ccc(CN2CCNCC2)c(OC)c1OC.Cl,303.15,1.565e-06,toluene,Cc1ccccc1,10.1021/acs.jced.8b00235
32382,COc1ccc(CC(=O)O)cc1,303.15,0.0415,toluene,Cc1ccccc1,10.1021/acs.jced.8b00271
32392,CC(=O)c1cccc([N+](=O)[O-])c1,303.15,0.1606,toluene,Cc1ccccc1,10.1021/acs.jced.8b00192
32401,CC(=O)c1ccc([N+](=O)[O-])cc1,303.15,0.1638,toluene,Cc1ccccc1,10.1021/acs.jced.8b00192
32411,COc1ccc(C(=O)N2CCCC2=O)cc1,303.15,0.02693,toluene,Cc1ccccc1,10.1021/acs.jced.8b00023
32421,O=C(O)Cc1ccccc1Cl,303.15,0.09746,toluene,Cc1ccccc1,10.1021/acs.jced.8b00139
32436,Cc1ccc(NC(=O)/C(=C/Cl)Sc2ccccc2)cc1,303.15,0.0443,toluene,Cc1ccccc1,10.1021/acs.jced.7b01011
32446,O=C(c1ccccc1)C(O)c1ccccc1,303.15,0.006347,toluene,Cc1ccccc1,10.1021/acs.jced.7b00743
32454,O=[N+]([O-])N1C2C3N([N+](=O)[O-])C1C1N([N+](=O)[O-])C(C(N1[N+](=O)[O-])N3[N+](=O)[O-])N2[N+](=O)[O-],303.15,0.0001962,toluene,Cc1ccccc1,10.1021/acs.jced.6b00761
32464,O=C1NC23NC(=O)NC2(N1)C(=O)NC3=O,303.15,1.28e-05,toluene,Cc1ccccc1,10.1021/acs.jced.6b00349
32469,O=[N+]([O-])c1c[nH]nc1[N+](=O)[O-],303.15,0.002404,toluene,Cc1ccccc1,10.1021/acs.jced.6b00219
32479,[NH3+]O.[NH3+]O.[O-]n1nnnc1-c1nnnn1[O-],303.15,2.443e-05,toluene,Cc1ccccc1,10.1021/acs.jced.6b00009
32499,CS(=O)(=O)c1ccc(C=O)cc1,303.15,0.001802,toluene,Cc1ccccc1,10.1021/acs.jced.5b01053
32518,Clc1cc(Cl)cc(Cl)c1,303.15,0.4627,toluene,Cc1ccccc1,10.1021/acs.jced.5b00607
32525,Nc1ccc(Cc2ccc(N)cc2)cc1,303.15,0.0244,toluene,Cc1ccccc1,10.1021/je501111d
32534,O=P(NCc1ccccc1)(Oc1ccccc1)Oc1ccccc1,303.15,0.02277,toluene,Cc1ccccc1,10.1021/acs.jced.5b00007
32553,O=C1Nc2ccccc2C1=O,303.15,0.0007136,toluene,Cc1ccccc1,10.1021/je500396b
32585,O=P(Oc1ccccc1)(Oc1ccccc1)N1CCN(P(=O)(Oc2ccccc2)Oc2ccccc2)CC1,303.15,0.00078184,toluene,Cc1ccccc1,10.1021/je400412z
32598,c1ccc(CSSCc2ccccc2)cc1,303.15,0.1978,toluene,Cc1ccccc1,10.1021/je400326r
32614,O=C(O)c1cccc(Cl)c1C(=O)c1ccccc1,303.15,0.4492,toluene,Cc1ccccc1,10.1021/je400246s
32624,O=C1c2ccccc2C(=O)c2c(Cl)cccc21,303.15,0.01598,toluene,Cc1ccccc1,10.1021/je400246s
32648,C[C@@H]1OC(=O)[C@H](C)OC1=O,303.15,0.04362,toluene,Cc1ccccc1,10.1021/je301014d
32668,c1ccc2c(c1)oc1ccccc12,303.15,0.3013,toluene,Cc1ccccc1,10.1021/je201282d
32679,O=C1c2ccccc2-c2ccccc21,303.15,0.2281,toluene,Cc1ccccc1,10.1021/je201282d
32688,c1ccc2c(c1)OP1(=NP3(=NP4(=N1)Oc1ccccc1O4)Oc1ccccc1O3)O2,303.15,0.0010785,toluene,Cc1ccccc1,10.1021/je200252c
32697,CCCCCCN1C=CN(C)C1.O=[N+]([O-])O,303.15,0.000334,toluene,Cc1ccccc1,10.1021/je200151j
32707,CCCCCCCCN1C=CN(C)C1.O=[N+]([O-])O,303.15,0.00043,toluene,Cc1ccccc1,10.1021/je200151j
32761,O=C(O)CC(O)(CC(=O)O)C(=O)O,303.15,0.07505,toluene,Cc1ccccc1,10.1021/je101167z
32859,CC(C)(C)C(=O)C(Oc1ccc(Cl)cc1)n1cncn1,303.15,0.191764,toluene,Cc1ccccc1,10.1021/je901024t
32914,O=P(c1ccccc1)(c1ccccc1)c1ccccc1,303.15,0.0396,toluene,Cc1ccccc1,10.1021/je800842z
32922,CC1=C(/C=C/C(C)=C/C=C/C(C)=C/C=C/C=C(C)/C=C/C=C(C)/C=C/C2=C(C)C(=O)CCC2(C)C)C(C)(C)CCC1=O,303.15,0.000146,toluene,Cc1ccccc1,10.1021/je800801x
32943,C[C@@H]1CC[C@H]2[C@@H](C)C(=O)O[C@@H]3O[C@@]4(C)CC[C@@H]1[C@]32OO4,303.15,0.07105086,toluene,Cc1ccccc1,10.1021/je800515w
32977,c1ccc2oc(CSCc3nc4ccccc4o3)nc2c1,303.15,0.01392,toluene,Cc1ccccc1,10.1021/je8005419
33021,C1=Cc2cccc3cccc1c23,303.15,0.22391,toluene,Cc1ccccc1,10.1021/je700347h
33090,CC(=O)Oc1ccc(C(c2ccc(OC(C)=O)cc2)c2ccccn2)cc1,303.15,0.001222,toluene,Cc1ccccc1,10.1021/acs.jced.9b00728
33097,N#CC(c1ccc(Cl)cc1)c1c(Cl)cc(-n2ncc(=O)[nH]c2=O)cc1Cl,303.15,0.0009228,toluene,Cc1ccccc1,10.1021/acs.jced.9b00353
33117,CC(C)Oc1ccc2c(=O)c(-c3ccccc3)coc2c1,303.15,0.03375,toluene,Cc1ccccc1,10.1016/j.jct.2020.106231
33128,COc1ccccc1N1CCN(CC(O)COc2cccc3ccccc23)CC1,303.15,0.012928,toluene,Cc1ccccc1,10.1016/j.jct.2019.105969
33137,Cc1ccc(NC(=O)c2ccc(CN3CCN(C)CC3)cc2)cc1Nc1nccc(-c2cccnc2)n1,303.15,0.001801,toluene,Cc1ccccc1,10.1016/j.jct.2019.106031