,SMILES,"T,K",Solubility,Solvent,SMILES_Solvent,Source
8397,COc1c(C)c2c(c(O)c1C/C=C(\C)CCC(=O)OCCN1CCOCC1)C(=O)OC2,303.15,0.006588,ethanol,CCO,10.1021/acs.jced.9b01139
8403,N[C@H](Cc1c[nH]cn1)C(=O)O,303.15,0.000433,ethanol,CCO,10.1021/acs.jced.9b01051
8414,CC(=O)Oc1ccccc1C(=O)O,303.15,0.0739854,ethanol,CCO,10.1021/acs.jced.9b01057
8424,Cc1cc(=O)oc2cc(N)ccc12,303.15,0.001606,ethanol,CCO,10.1021/acs.jced.9b00873
8435,CC(=O)Oc1ccc(C(c2ccc(OC(C)=O)cc2)c2ccccn2)cc1,303.15,0.000159,ethanol,CCO,10.1021/acs.jced.9b00728
8444,C[C@H]1COc2c(N3CCN(C)CC3)c(F)c(N)c3c(=O)c(C(=O)O)cn1c23.Cl,303.15,2.018e-05,ethanol,CCO,10.1021/acs.jced.9b00717
8454,COc1c(N2CCNC(C)C2)c(F)cc2c(=O)c(C(=O)O)cn(C3CC3)c12,303.15,0.000829,ethanol,CCO,10.1021/acs.jced.9b00930
8462,COC(=O)Nc1nc2ccc(Sc3ccccc3)cc2[nH]1,303.15,0.000478,ethanol,CCO,10.1021/acs.jced.9b00471
8472,N#CC(c1ccc(Cl)cc1)c1c(Cl)cc(-n2ncc(=O)[nH]c2=O)cc1Cl,303.15,0.003475,ethanol,CCO,10.1021/acs.jced.9b00353
8479,O=c1[nH]c2ccccc2n1CCCN1CCC(n2c(=O)[nH]c3cc(Cl)ccc32)CC1,303.15,2.933e-05,ethanol,CCO,10.1021/acs.jced.9b00216
8491,CP(=O)(O)CC[C@H](N)C(=O)O.Cl,303.15,0.00175,ethanol,CCO,10.1021/acs.jced.9b00004
8500,COc1cc2c(cc1OC)-c1cc3ccc(OC)c(OC)c3c[n+]1CC2.[Cl-],303.15,0.005433,ethanol,CCO,10.1021/acs.jced.8b01055
8511,N#CCc1ccc([N+](=O)[O-])cc1,303.15,0.005357,ethanol,CCO,10.1021/acs.jced.9b00005
8522,O=Cc1ccc(C(=O)O)cc1,303.15,0.01553,ethanol,CCO,10.1021/acs.jced.8b01262
8532,O=C(O)[C@H]1O[C@@H](Oc2cc3oc(-c4ccccc4)cc(=O)c3c(O)c2O)[C@H](O)[C@@H](O)[C@@H]1O,303.15,0.0001962,ethanol,CCO,10.1021/acs.jced.8b01186
8544,FC(F)(F)c1cccnc1Cl,303.15,0.8311,ethanol,CCO,10.1021/acs.jced.8b00989
8550,C[C@@H]1CC[C@H]2[C@@H](C)[C@H](OC(=O)CCC(=O)O)O[C@@H]3O[C@@]4(C)CC[C@@H]1[C@@]23OO4,303.15,0.008543,ethanol,CCO,10.1021/acs.jced.8b00988
8558,CCCN(CCC)S(=O)(=O)c1ccc(C(=O)O)cc1,303.15,0.0117,ethanol,CCO,10.1021/acs.jced.8b00863
8567,O=C(OCC1c2ccccc2-c2ccccc21)ON1C(=O)CCC1=O,303.15,0.0009792,ethanol,CCO,10.1021/acs.jced.8b00732
8581,COc1cc(N)nc(OC)n1,303.15,0.02533,ethanol,CCO,10.1021/acs.jced.8b00719
8591,N#Cc1ccc([N+](=O)[O-])cc1,303.15,0.006724,ethanol,CCO,10.1021/acs.jced.8b00555
8598,C[C@H](O)[C@@H](O)[C@@H](O)[C@H](O)C=O,303.15,0.00057,ethanol,CCO,10.1021/acs.jced.8b00361
8605,Cc1ncc(COP(=O)(O)O)c(C=O)c1O.O,303.15,4.86e-06,ethanol,CCO,10.1021/acs.jced.8b00309
8614,N#Cc1cccc([N+](=O)[O-])c1,303.15,0.008726,ethanol,CCO,10.1021/acs.jced.8b00230
8623,CS(=O)(=O)c1ccc([C@@H](O)[C@@H](CO)NC(=O)C(Cl)Cl)cc1,303.15,0.0006246,ethanol,CCO,10.1021/acs.jced.8b00179
8641,CN1CC(O)c2cc(N=NC(N)=O)c(O)cc21,303.15,4.292e-05,ethanol,CCO,10.1021/acs.jced.7b00982
8647,COc1ccc([C@@H]2CC(=O)c3c(O)cc(O[C@@H]4O[C@H](CO[C@@H]5O[C@@H](C)[C@H](O)[C@@H](O)[C@H]5O)[C@@H](O)[C@H](O)[C@H]4O)cc3O2)cc1O,303.15,3.95e-05,ethanol,CCO,10.1021/acs.jced.7b00948
8660,CCOc1cc(C=O)ccc1O,303.15,0.224,ethanol,CCO,10.1021/acs.jced.6b00972
8667,COC(=O)[C@H](N)c1ccc(O)cc1,303.15,0.0041138,ethanol,CCO,10.1021/acs.jced.6b00415
8677,CC(C)OC(=O)C(C)(C)Oc1ccc(C(=O)c2ccc(Cl)cc2)cc1,303.15,0.01310742,ethanol,CCO,10.1021/acs.jced.6b00268
8704,CC1(C)S[C@@H]2[C@H](NC(=O)COc3ccccc3)C(=O)N2[C@H]1C(=O)[O-].[K+],303.15,0.002066,ethanol,CCO,10.1021/je5008422
8717,Nc1cc(Cl)cc(Cl)c1,303.15,0.3767,ethanol,CCO,10.1021/je500744k
8728,O=[N+]([O-])c1cccc(Cl)c1Cl,303.15,0.0465,ethanol,CCO,10.1021/je500494d
8731,O=c1cc(-c2ccccc2)oc2cc(O)cc(O)c12,303.15,0.0078,ethanol,CCO,10.1021/je5001654
8739,OC[C@H]1O[C@H](O[C@H]2O[C@H](CO)[C@@H](O)[C@H](O)[C@H]2O)[C@H](O)[C@@H](O)[C@@H]1O,303.15,0.0008516,ethanol,CCO,10.1021/je5000428
8748,COC(=O)[C@H](Cc1ccccc1)NC(=O)[C@@H](N)CC(=O)O,303.15,0.0001445,ethanol,CCO,10.1021/je500259m
8755,Nc1cc(Cl)nnc1Cl,303.15,0.017102,ethanol,CCO,10.1021/je401053y
8769,O=C(O)CC(O)(CC(=O)O)C(=O)O,303.15,0.1856,ethanol,CCO,10.1021/je400838e
8774,O=C1CC(c2ccc(O)cc2)Oc2cc(O)cc(O)c21,303.15,1.125e-06,ethanol,CCO,10.1021/je4000718
8783,Nc1cccc(S(=O)(=O)c2cccc(N)c2)c1,303.15,0.004151,ethanol,CCO,10.1016/j.jct.2021.106612
8793,S=C(Nc1ccccc1)Nc1ccccc1,303.15,0.003143,ethanol,CCO,10.1016/j.jct.2021.106605
8803,O=C(O)COc1ccc(Cl)cc1Cl,303.15,0.1671,ethanol,CCO,10.1016/j.jct.2021.106589
8813,CC(=O)Nc1ccc(OC(=O)c2ccccc2OC(C)=O)cc1,303.15,0.0009475,ethanol,CCO,10.1016/j.jct.2021.106517
8821,Nc1nc2ccc(OC(F)(F)F)cc2s1,303.15,0.23629,ethanol,CCO,10.1016/j.jct.2021.106569
8832,Cn1c(=O)cc(N2CCC[C@@H](N)C2)n(Cc2ccccc2C#N)c1=O.O=C(O)c1ccccc1,303.15,0.001021,ethanol,CCO,10.1016/j.jct.2021.106474
8840,CC(=O)Nc1ccc(C(=O)O)cc1,303.15,0.009207,ethanol,CCO,10.1016/j.jct.2021.106478
8850,CN1CCN(C2=Nc3cc(Cl)ccc3Nc3ccccc32)CC1,303.15,0.008104,ethanol,CCO,10.1016/j.jct.2021.106398
8860,CN1CCN(C2=Nc3cc(Cl)ccc3Nc3ccccc32)CC1,303.15,0.008901,ethanol,CCO,10.1016/j.jct.2021.106451
8871,CN(C)c1ccc(O)c2c1C[C@H]1C[C@H]3[C@H](N(C)C)C(O)=C(C(N)=O)C(=O)[C@@]3(O)C(O)=C1C2=O.Cl,303.15,0.00152,ethanol,CCO,10.1016/j.jct.2021.106399
8880,CCN(CC)CCCC(C)Nc1ccnc2cc(Cl)ccc12.O=P(O)(O)O.O=P(O)(O)O,303.15,1.684e-05,ethanol,CCO,10.1016/j.jct.2020.106368
8888,CCCCN(CCCC)CC(O)c1cc(Cl)cc2c1-c1ccc(Cl)cc1/C2=C/c1ccc(Cl)cc1,303.15,0.0002127,ethanol,CCO,10.1016/j.jct.2020.106323
8898,COCCOC(=O)C1=C(C)NC(C)=C(C(=O)OC(C)C)C1c1cccc([N+](=O)[O-])c1,303.15,0.02468,ethanol,CCO,10.1016/j.jct.2020.106259
8907,O=c1cc(CO)occ1O,303.15,0.008934,ethanol,CCO,10.1016/j.jct.2020.106280
8918,CC#CCn1c(N2CCC[C@@H](N)C2)nc2c1c(=O)n(Cc1nc(C)c3ccccc3n1)c(=O)n2C,303.15,0.001631,ethanol,CCO,10.1016/j.jct.2020.106273
8926,O=Cc1cc(Br)c(O)c(Br)c1,303.15,0.005547,ethanol,CCO,10.1016/j.jct.2020.106252
8936,O=C(O)CCc1nc(-c2ccccc2)c(-c2ccccc2)o1,303.15,0.00716,ethanol,CCO,10.1016/j.jct.2020.106239
8946,CC(C)Oc1ccc2c(=O)c(-c3ccccc3)coc2c1,303.15,0.004086,ethanol,CCO,10.1016/j.jct.2020.106231
8956,N#Cc1ccc2c(c1)OCO2,303.15,0.02141,ethanol,CCO,10.1016/j.jct.2020.106191
8967,COc1cccc(C=O)c1O,303.15,0.6146,ethanol,CCO,10.1016/j.jct.2020.106199
8974,Cn1c(=O)c2c(ncn2CC2OCCO2)n(C)c1=O,303.15,0.01201,ethanol,CCO,10.1016/j.jct.2020.106126
8983,O=c1[nH]c(=O)n(C2CCCO2)cc1F,303.15,0.005061,ethanol,CCO,10.1016/j.jct.2020.106090
8992,COc1ccccc1N1CCN(CC(O)COc2cccc3ccccc23)CC1,303.15,0.001975,ethanol,CCO,10.1016/j.jct.2019.105969
9000,CNC[C@H](O)c1cccc(O)c1.Cl,303.15,0.03403,ethanol,CCO,10.1016/j.jct.2019.105959
9011,COC(=O)Nc1nc2ccc(Sc3ccccc3)cc2[nH]1,303.15,6.989e-05,ethanol,CCO,10.1016/j.jct.2019.07.018
9018,Cl.c1ccc([C@H]2CN3CCSC3=N2)cc1,303.15,0.01527,ethanol,CCO,10.1016/j.jct.2019.105882
9028,Cc1c([N+](=O)[O-])c(C)c([N+](=O)[O-])c(C(C)(C)C)c1[N+](=O)[O-],303.15,0.004578,ethanol,CCO,10.1016/j.jct.2019.03.029
9035,Cc1c(C(N)=O)cc([N+](=O)[O-])cc1[N+](=O)[O-],303.15,0.003976,ethanol,CCO,10.1016/j.jct.2019.01.013
9055,N[C@H](Cc1c[nH]c2ccccc12)C(=O)O,303.15,0.0002022,ethanol,CCO,10.1016/j.jct.2018.08.018
9067,O=C1c2cccc(O)c2C(=O)c2c(O)cc(CO)cc21,303.15,4.355e-05,ethanol,CCO,10.1016/j.jct.2016.02.020
9079,Brc1cn[nH]c1,303.15,0.3716,ethanol,CCO,10.1016/j.jct.2017.05.005
9089,O=C(Nc1ccccc1-c1ccc(Cl)cc1)c1cccnc1Cl,303.15,0.002821,ethanol,CCO,10.1016/j.jct.2017.04.017
9100,c1ccc(-c2nnn[nH]2)cc1,303.15,0.02196,ethanol,CCO,10.1016/j.jct.2017.04.019
9112,Clc1ccc(COC(Cn2ccnc2)c2ccc(Cl)cc2Cl)cc1.O=[N+]([O-])O,303.15,0.001533,ethanol,CCO,10.1016/j.jct.2017.03.038
9124,Cc1cc(C)[nH]n1,303.15,0.1787,ethanol,CCO,10.1016/j.jct.2017.02.011
9139,Cc1ccc(N)c([N+](=O)[O-])c1,303.15,0.02282,ethanol,CCO,10.1016/j.jct.2017.02.008
9152,Nc1ccc(N)c([N+](=O)[O-])c1,303.15,0.009577,ethanol,CCO,10.1016/j.jct.2017.01.006
9169,CC(C)c1ncc[nH]1,303.15,0.2726,ethanol,CCO,10.1016/j.jct.2016.12.028
9175,COc1cc(CO)ccc1O,303.15,0.0627,ethanol,CCO,10.1016/j.jct.2016.11.030
9188,Clc1ccc2c(c1)Nc1ccccc1S2,303.15,0.00592,ethanol,CCO,10.1016/j.jct.2016.11.029
9203,Nc1ccc([N+](=O)[O-])cc1N,303.15,0.001599,ethanol,CCO,10.1016/j.jct.2016.11.014
9220,Nc1cc(Cl)ccc1C(=O)O,303.15,0.0221,ethanol,CCO,10.1016/j.jct.2016.11.019
9235,CC(C)(C)C(O)(CCc1ccc(Cl)cc1)Cn1cncn1,303.15,0.03703,ethanol,CCO,10.1016/j.jct.2016.11.032
9250,Cc1cc([N+](=O)[O-])ccc1N,303.15,0.01804,ethanol,CCO,10.1016/j.jct.2016.10.037
9263,Nc1ccccc1N,303.15,0.01841,ethanol,CCO,10.1016/j.jct.2016.10.018
9282,O=Cc1cccc([N+](=O)[O-])c1,303.15,0.1834,ethanol,CCO,10.1016/j.jct.2016.10.040
9291,Cn1cnc([N+](=O)[O-])c1Cl,303.15,0.004559,ethanol,CCO,10.1016/j.jct.2016.10.006
9308,CC(C)C(=O)OCC(=O)[C@@]12O[C@H](C3CCCCC3)O[C@@H]1C[C@H]1[C@@H]3CCC4=CC(=O)C=C[C@]4(C)[C@H]3[C@@H](O)C[C@@]12C,303.15,0.0129,ethanol,CCO,10.1016/j.jct.2016.10.014
9319,COc1cc(Cl)nc(N)n1,303.15,0.004877,ethanol,CCO,10.1016/j.jct.2016.10.020
9327,NC(=O)N1c2ccccc2CC(=O)c2ccccc21,303.15,0.000488,ethanol,CCO,10.1016/j.jct.2016.09.011
9335,O=Cc1ccc([N+](=O)[O-])cc1,303.15,0.03656,ethanol,CCO,10.1016/j.jct.2016.09.012
9346,Nc1nnc[nH]1,303.15,0.03021,ethanol,CCO,10.1016/j.jct.2016.09.033
9356,C[C@@H]1O[C@@H](OC[C@H]2O[C@@H](Oc3c(-c4ccc(OCCO)c(OCCO)c4)oc4cc(OCCO)cc(O)c4c3=O)[C@H](O)[C@@H](O)[C@@H]2O)[C@H](O)[C@H](O)[C@H]1O,303.15,0.000346,ethanol,CCO,10.1016/j.jct.2016.09.015
9367,O=Cc1ccc(C=O)cc1,303.15,0.02467,ethanol,CCO,10.1016/j.jct.2016.07.013
9381,CC1=NN(c2ccc(C)cc2)C(=O)C1,303.15,0.03453,ethanol,CCO,10.1016/j.jct.2016.08.007
9396,O=[N+]([O-])c1ccc(O)c2ncccc12,303.15,0.001394,ethanol,CCO,10.1016/j.jct.2016.04.018
9406,Cc1ccc(C(C)C)c(O)c1,303.15,0.6898,ethanol,CCO,10.1016/j.jct.2015.09.010
9414,COc1ccc2nc(S(=O)Cc3ncc(C)c(OC)c3C)[nH]c2c1,303.15,0.00413,ethanol,CCO,10.1016/j.jct.2015.11.005
9429,O=C1NC(=O)c2ccccc21,303.15,0.003016,ethanol,CCO,10.1016/j.jct.2015.10.024
9440,COC(=O)N(OC)c1ccccc1COc1ccn(-c2ccc(Cl)cc2)n1,303.15,0.01841,ethanol,CCO,10.1016/j.jct.2016.05.005
9452,Cc1cccc([N+](=O)[O-])c1N,303.15,0.02845,ethanol,CCO,10.1016/j.jct.2016.05.027
9458,COc1c(O)cc2c(c1O)[C@@H]1O[C@H](CO)[C@@H](O)[C@H](O)[C@H]1OC2=O,303.15,0.00537,ethanol,CCO,10.1016/j.jct.2016.05.003
9472,O=S(=O)(c1ccc(O)cc1)c1ccccc1O,303.15,0.08499,ethanol,CCO,10.1016/j.jct.2016.07.001
9485,Cc1cc(C(=O)O)ccc1[N+](=O)[O-],303.15,0.0113,ethanol,CCO,10.1016/j.jct.2016.07.023
9497,CN(C)CCOC(c1ccccc1)c1ccccc1.Cl,303.15,0.0774,ethanol,CCO,10.1016/j.jct.2015.09.032
9506,CO/N=C(\C(=O)N[C@@H]1C(=O)N2C(C(=O)O)=C(CSc3nnnn3C)CS[C@H]12)c1csc(N)n1.CO/N=C(\C(=O)N[C@@H]1C(=O)N2C(C(=O)O)=C(CSc3nnnn3C)CS[C@H]12)c1csc(N)n1.Cl,303.15,3.804e-05,ethanol,CCO,10.1016/j.jct.2015.11.024
9515,CC(=O)O[C@H]1CC[C@@]2(C)C(=CC[C@H]3[C@@H]4CCC(=O)[C@@]4(C)CC[C@@H]32)C1,303.15,0.006951,ethanol,CCO,10.1016/j.jct.2016.01.023
9531,N=C(Nc1ccccc1)Nc1ccccc1,303.15,0.03631,ethanol,CCO,10.1016/j.jct.2016.03.011
9541,C#CC(C)(C)NC(=O)c1cc(Cl)cc(Cl)c1,303.15,0.01508,ethanol,CCO,10.1016/j.jct.2016.03.039
9550,C/C=C/C=C/C(=O)O,303.15,0.07469,ethanol,CCO,10.1016/j.jct.2015.02.004
9580,O=C(O)CCCCCCCCCCCC(=O)O,303.15,0.00674,ethanol,CCO,10.1016/j.jct.2015.05.026
9597,O=[N+]([O-])c1cccc2cccc([N+](=O)[O-])c12,303.15,0.0007889,ethanol,CCO,10.1016/j.jct.2015.07.010
9610,CC(C)(C)[C@H](O)[C@H](Cc1ccc(Cl)cc1)n1cncn1,303.15,0.01729,ethanol,CCO,10.1016/j.jct.2016.09.038
9623,CCOC(=O)Cc1c(C(=O)OCC)sc(N)c1C#N,303.15,0.01231,ethanol,CCO,10.1016/j.jct.2015.11.025
9632,Nc1ccc(N2CCOCC2=O)cc1,303.15,0.003927,ethanol,CCO,10.1016/j.jct.2016.01.022
9644,CC(C)(C)C(=O)C(Oc1ccc(Cl)cc1)n1ccnc1,303.15,0.1844,ethanol,CCO,10.1016/j.jct.2014.04.011
9650,O=P([O-])([O-])OC[C@H]1O[C@@H](n2cnc3c(O)ncnc32)[C@H](O)[C@@H]1O.[Na+].[Na+],303.15,0.001224,ethanol,CCO,10.1016/j.jct.2014.04.023
9662,CN(C)[C@@H]1C(O)=C(C(N)=O)C(=O)[C@@]2(O)C(O)=C3C(=O)c4c(O)cccc4[C@@](C)(O)[C@H]3C[C@@H]12.Cl,303.15,0.0011619,ethanol,CCO,10.1016/j.jct.2012.08.007
9667,C[C@H]1[C@H]2[C@H](C[C@H]3[C@@H]4CC=C5C[C@@H](O)CC[C@]5(C)[C@H]4CC[C@@]32C)O[C@]12CC[C@@H](C)CO2,303.15,0.0014409,ethanol,CCO,10.1016/j.jct.2011.11.009
9700,O=C(/C=C/C=C/c1ccc2c(c1)OCO2)N1CCCCC1,303.15,0.00966,ethanol,CCO,10.1016/j.jct.2021.106555
9709,Clc1ncnc2[nH]ccc12,303.15,0.0174,ethanol,CCO,10.1016/j.jct.2021.106493
9718,Nc1nc(N)nc(NC2CC2)n1,303.15,0.001725,ethanol,CCO,10.1016/j.fluid.2018.07.024
9727,Cn1cc([N+](=O)[O-])cn1,303.15,0.006334,ethanol,CCO,10.1016/j.fluid.2018.05.023
9733,CC1(C)CCC2=C(O1)c1ccccc1C(=O)C2=O,303.15,0.00595,ethanol,CCO,10.1016/j.fluid.2018.05.005
9743,Cc1cc(C)c(C(=O)P(=O)(c2ccccc2)c2ccccc2)c(C)c1,303.15,0.2178,ethanol,CCO,10.1016/j.fluid.2018.01.015
9760,O=C1NC(=O)C2C3C=CC(C3)C12,303.15,0.01152,ethanol,CCO,10.1016/j.fluid.2019.112301
9769,Cn1nc([N+](=O)[O-])c([N+](=O)[O-])c1[N+](=O)[O-],303.15,0.020606,ethanol,CCO,10.1016/j.fluid.2017.04.008
9778,CC(=O)NC[C@H]1CN(c2ccc(N3CCOCC3)c(F)c2)C(=O)O1,303.15,0.002141,ethanol,CCO,10.1016/j.fluid.2016.10.021
9785,CCOc1ccccc1C(N)=O,303.15,0.02114,ethanol,CCO,10.1016/j.fluid.2016.08.019
9792,COC(=O)[C@H](N)c1ccccc1.Cl,303.15,0.028,ethanol,CCO,10.1016/j.fluid.2016.02.020
9800,Cc1cc(C)cc(OCC2CNC(=O)O2)c1,303.15,0.0102513,ethanol,CCO,10.1016/j.fluid.2015.09.013
9831,CNC[C@H](O)[C@@H](O)[C@H](O)[C@H](O)CO.Cc1c(Nc2ncccc2C(=O)O)cccc1C(F)(F)F,303.15,0.007753,ethanol,CCO,10.1016/j.fluid.2015.06.026
9842,O=c1ccc2ccccc2o1,303.15,0.08691,ethanol,CCO,10.1016/j.fluid.2015.03.022
9863,N[C@@H](C(=O)N[C@@H]1C(=O)N2C(C(=O)O)=C(Cl)CS[C@H]12)c1ccccc1.O,303.15,6.721e-05,ethanol,CCO,10.1016/j.fluid.2015.01.001
9878,O=C(O)CN(CC(=O)O)CP(=O)(O)O,303.15,7.85e-05,ethanol,CCO,10.1016/j.fluid.2014.08.036
9891,CCn1c2ccccc2c2ccccc21,303.15,0.0182,ethanol,CCO,10.1016/j.fluid.2014.06.030
9897,O=C(O)CC(O)C(=O)O,303.15,0.12,ethanol,CCO,10.1016/j.fluid.2014.06.017
9909,Cc1nc2n(c(=O)c1CCN1CCC(c3noc4cc(F)ccc34)CC1)CCCC2,303.15,0.00248,ethanol,CCO,10.1016/j.fluid.2014.04.028
9931,CCN1CCN(C(=O)N[C@@H](C(=O)N[C@@H]2C(=O)N3C(C(=O)O)=C(CSc4nnnn4C)CS[C@H]23)c2ccc(O)cc2)C(=O)C1=O,303.15,4.568e-05,ethanol,CCO,10.1016/j.fluid.2013.11.005
9936,CC1(C)CO[P+]([O-])(Oc2c(Br)cc(Br)cc2Br)OC1,303.15,0.00358,ethanol,CCO,10.1016/j.fluid.2013.09.023
9946,Nc1ccc(Oc2ccc(N)cc2)cc1,303.15,0.00113,ethanol,CCO,10.1016/j.fluid.2013.07.010
9956,C/C=C/C(=O)O,303.15,0.4034,ethanol,CCO,10.1016/j.fluid.2013.06.038
9962,COC(=O)C1CC(=O)C(C(=O)OC)CC1=O,303.15,0.00056,ethanol,CCO,10.1016/j.fluid.2013.06.037
9987,COC(=O)[C@@H](N)CS.Cl,303.15,0.01449,n-propanol,CCCO,10.1021/acs.jced.0c00795
9998,CC1(C)NC(=O)NC1=O,303.15,0.05429,n-propanol,CCCO,10.1021/acs.jced.9b01020
10009,NS(=O)(=O)Cc1noc2ccccc12,303.15,0.001494,n-propanol,CCCO,10.1021/acs.jced.0c00249
10018,CC(=O)Oc1ccccc1C(=O)Nc1ncc([N+](=O)[O-])s1,303.15,0.00039,n-propanol,CCCO,10.1021/acs.jced.0c00254
10026,O=Cc1cc(Br)c(O)c(Br)c1,303.15,0.006696,n-propanol,CCCO,10.1021/acs.jced.0c00376
10036,CC(=O)Nc1ccc(OC(=O)c2ccccc2OC(C)=O)cc1,303.15,0.000327,n-propanol,CCCO,10.1021/acs.jced.0c00301
10046,CCCSc1nc(N[C@@H]2C[C@H]2c2ccc(F)c(F)c2)c2nnn([C@@H]3C[C@H](OCCO)[C@@H](O)[C@H]3O)c2n1,303.15,0.006924,n-propanol,CCCO,10.1021/acs.jced.0c00127
10055,O=C(Nc1ccccc1)c1ccccc1,303.15,0.007846,n-propanol,CCCO,10.1021/acs.jced.0c00167
10063,Nc1ccc(S(N)(=O)=O)cc1,303.15,0.003646,n-propanol,CCCO,10.1021/acs.jced.9b00411
10069,O=[N+]([O-])N=C1NCCN1Cc1ccc(Cl)nc1,303.15,0.0008,n-propanol,CCCO,10.1021/acs.jced.0c00558
10089,O=C(O)COc1ccc(Cl)cc1,303.15,0.05064,n-propanol,CCCO,10.1021/acs.jced.1c00153
10099,Cc1cc(Cl)cc(C(=O)O)c1N,303.15,0.008032,n-propanol,CCCO,10.1021/acs.jced.1c00047
10107,Cc1c(N)cccc1C(=O)O,303.15,0.004438,n-propanol,CCCO,10.1021/acs.jced.1c00109
10118,CC(=O)Nc1ccccc1[N+](=O)[O-],303.15,0.02846,n-propanol,CCCO,10.1021/acs.jced.1c00037
10125,CSCCC(NC(C)=O)C(=O)O,303.15,0.07702,n-propanol,CCCO,10.1021/acs.jced.1c00064
10132,O=C(O)c1ccc(CO)cc1,303.15,0.03671,n-propanol,CCCO,10.1021/acs.jced.1c00035
10141,Nc1cccc(S(=O)(=O)c2cccc(N)c2)c1,303.15,0.002544,n-propanol,CCCO,10.1021/acs.jced.1c00062
10151,Cn1c(=O)c2c(ncn2CC2OCCO2)n(C)c1=O,303.15,0.0024506,n-propanol,CCCO,10.1021/acs.jced.0c01088
10160,O=C(O)[C@@H]1C[C@@H](O)CN1,303.15,0.000203,n-propanol,CCCO,10.1021/acs.jced.0c00794
10171,O=Cc1cc(C=O)cc(C=O)c1,303.15,0.001935,n-propanol,CCCO,10.1021/acs.jced.0c00776
10179,OCC(O)COc1ccc(Cl)cc1,303.15,0.09859,n-propanol,CCCO,10.1021/acs.jced.0c00900
10191,COc1cc2nc(Cl)nc(N)c2cc1OC,303.15,0.0005523,n-propanol,CCCO,10.1021/acs.jced.0c00506
10198,O=C(Nc1ccccc1)c1ccccc1O,303.15,0.0266097,n-propanol,CCCO,10.1021/acs.jced.0c01078
10208,O=C(O)c1cccc(O)c1O,303.15,0.08403,n-propanol,CCCO,10.1021/acs.jced.0c01032
10217,NC(=O)[C@@H]1CCCN1,303.15,0.12984,n-propanol,CCCO,10.1021/acs.jced.0c00961
10235,c1ccc2[nH]c(-c3cscn3)nc2c1,303.15,0.002174,n-propanol,CCCO,10.1021/acs.jced.0c00724
10244,Nc1ccc(Cc2ccc(N)c(Cl)c2)cc1Cl,303.15,0.04217,n-propanol,CCCO,10.1021/acs.jced.0c00655
10255,c1cnc2[nH]ccc2c1,303.15,0.2724,n-propanol,CCCO,10.1021/acs.jced.0c00128
10265,Nc1cccc(Cl)c1C(=O)O,303.15,0.04985,n-propanol,CCCO,10.1021/acs.jced.0c00320
10272,CC1=NN(c2ccccc2)C(=O)C1,303.15,0.034421,n-propanol,CCCO,10.1021/acs.jced.0c00290
10281,C#C[C@]1(O)CC[C@H]2[C@@H]3CCC4=CC(=O)CC[C@@H]4[C@H]3C(=C)C[C@@]21CC,303.15,0.00974,n-propanol,CCCO,10.1021/acs.jced.0c00201
10288,Cl.N=C(N=C(N)N)N1CCOCC1,303.15,0.001612,n-propanol,CCCO,10.1021/acs.jced.0c00015
10295,Nc1nc(=O)[nH]cc1F,303.15,0.0004887,n-propanol,CCCO,10.1021/acs.jced.1c00206
10302,O=C(O)CNCc1ccccc1,303.15,0.000306,n-propanol,CCCO,10.1021/acs.jced.1c00050
10310,O=C(O)c1cccc([N+](=O)[O-])c1O,303.15,0.07907,n-propanol,CCCO,10.1021/acs.jced.1c00259
10317,Cl.N[C@@H](Cc1ccccc1)C(=O)OCc1ccccc1,303.15,0.002814,n-propanol,CCCO,10.1021/acs.jced.1c00239
10326,O=C1CCc2cc(OCCCCc3nnnn3C3CCCCC3)ccc2N1,303.15,0.001158,n-propanol,CCCO,10.1021/acs.jced.1c00302
10331,CCOC(=O)[C@@H]1CSCN1.Cl,303.15,0.01195,n-propanol,CCCO,10.1021/acs.jced.1c00079
10336,CC(C)(C)OC(=O)N1CCC[C@H]1C(=O)O,303.15,0.131652,n-propanol,CCCO,10.1021/acs.jced.1c00201
10344,O=C(O)c1cccc(C(=O)O)n1,303.15,0.007612,n-propanol,CCCO,10.1021/acs.jced.1c00200
10353,CNC(=O)c1cc(Oc2ccc(N)cc2)ccn1,303.15,0.01854,n-propanol,CCCO,10.1021/acs.jced.1c00232
10362,Nc1cccc(C(=O)O)c1,303.15,0.01072,n-propanol,CCCO,10.1021/acs.jced.1c00247
10369,O=C(N[C@H](C(=O)O)c1ccccc1)OCc1ccccc1,303.15,0.038964,n-propanol,CCCO,10.1021/acs.jced.1c00240
10386,O=C(O)c1cc([N+](=O)[O-])cc([N+](=O)[O-])c1O,303.15,0.06801,n-propanol,CCCO,10.1021/acs.jced.0c00122
10395,O=C1N=c2ccccc2=N1,303.15,0.0037525,n-propanol,CCCO,10.1021/acs.jced.0c00165
10406,CC(C)(c1ccc(O)cc1)c1ccc(O)cc1,303.15,0.2137,n-propanol,CCCO,10.1021/acs.jced.0c00166
10415,O=c1cc(CBr)c2ccccc2[nH]1,303.15,0.000379,n-propanol,CCCO,10.1021/acs.jced.0c00303
10420,OCc1ccccc1O[C@@H]1OC(CO)[C@@H](O)[C@@H](O)C1O,303.15,0.00036883,n-propanol,CCCO,10.1021/acs.jced.0c00332
10425,OC[C@H]1O[C@@H](Oc2ccc(O)cc2)[C@H](O)[C@@H](O)[C@@H]1O,303.15,0.001416,n-propanol,CCCO,10.1021/acs.jced.0c00353
10430,CCOC(=O)[C@@H](N)CCc1ccccc1.Cl,303.15,0.03528,n-propanol,CCCO,10.1021/acs.jced.1c00485
10436,CC(CCc1ccccc1)NCC(O)c1ccc(O)c(C(N)=O)c1.Cl,303.15,0.000841,n-propanol,CCCO,10.1021/acs.jced.1c00432
10446,COc1cc2c(cc1OC)C(=O)CC2,303.15,0.02812,n-propanol,CCCO,10.1021/acs.jced.1c00040
10455,CC(=O)NCC(=O)O,303.15,0.003502,n-propanol,CCCO,10.1021/acs.jced.0c00983
10464,CC(=O)N1CCC[C@H]1C(=O)O,303.15,0.19475,n-propanol,CCCO,10.1021/acs.jced.1c00032
10471,CCCOC(=O)c1ccc(O)cc1,303.15,0.1977,n-propanol,CCCO,10.1021/acs.jced.0c00584
10481,CNCCC(Oc1ccc(C(F)(F)F)cc1)c1ccccc1.Cl,303.15,0.01989,n-propanol,CCCO,10.1021/acs.jced.0c00513
10489,C=CC(=O)NC(C)(C)CS(=O)(=O)O,303.15,0.007641,n-propanol,CCCO,10.1021/acs.jced.0c00578
10499,O=C(O)Cc1ccccc1[N+](=O)[O-],303.15,0.03699,n-propanol,CCCO,10.1021/acs.jced.0c00543
10509,O=C(O)Cc1ccc([N+](=O)[O-])cc1,303.15,0.09158,n-propanol,CCCO,10.1021/acs.jced.0c00182
10517,N[C@@H](CS)C(=O)O,303.15,0.000161,n-propanol,CCCO,10.1021/acs.jced.0c00031
10524,Oc1ccc(OCc2ccccc2)cc1,303.15,0.06422,n-propanol,CCCO,10.1021/acs.jced.9b00817
10529,O=C([O-])/C=C/C(=O)O.[Na+],303.15,7.13e-05,n-propanol,CCCO,10.1021/acs.jced.9b01203
10537,COC(=O)C1=C(C)NC(C)=C(C(=O)OCC(C)C)C1c1ccccc1[N+](=O)[O-],303.15,0.009415,n-propanol,CCCO,10.1021/acs.jced.9b01036
10544,O=c1[nH]c2ccccc2c(=O)o1,303.15,0.001812,n-propanol,CCCO,10.1021/acs.jced.9b01164
10552,O=C[C@H](O)[C@H](O)[C@H](O)CO,303.15,0.0111676,n-propanol,CCCO,10.1021/acs.jced.0c00009
10558,Oc1c(Br)cc(Br)c2cccnc12,303.15,0.0002517,n-propanol,CCCO,10.1021/acs.jced.9b01190
10595,CC(=O)N[C@@H](CC(C)C)C(=O)O,303.15,0.03291,n-propanol,CCCO,10.1021/acs.jced.9b01151