,SMILES,"T,K",Solubility,Solvent,SMILES_Solvent,Source
5108,CC(=O)N[C@@H](CC(C)C)C(=O)O,303.15,0.03956,ethanol,CCO,10.1021/acs.jced.9b01151
5119,CN(C)Cc1c[nH]c2ccccc12,303.15,0.03993,ethanol,CCO,10.1021/acs.jced.9b00911
5126,CN(C)Cc1c[nH]c2ccccc12,303.15,0.0045471,ethanol,CCO,10.1021/acs.jced.9b01063
5133,C[C@H](N)C(=O)O,303.15,0.000244,ethanol,CCO,10.1021/acs.jced.9b00743
5148,COc1cc([N+](=O)[O-])ccc1N,303.15,0.006365,ethanol,CCO,10.1021/acs.jced.9b00991
5158,O=Cc1ccc(O)c(Br)c1,303.15,0.01607,ethanol,CCO,10.1021/acs.jced.9b01004
5169,CCCc1ncc(C[n+]2ccccc2C)c(N)n1.Cl.[Cl-],303.15,0.0002319,ethanol,CCO,10.1021/acs.jced.9b00999
5177,Nc1ccc(Cl)cc1[N+](=O)[O-],303.15,0.02768,ethanol,CCO,10.1021/acs.jced.9b00919
5184,O=S(=O)([O-])c1cccc2c(S(=O)(=O)[O-])cccc12.[Na+].[Na+],303.15,0.0001104,ethanol,CCO,10.1021/acs.jced.9b00029
5193,O=C(O)c1cccnc1Cl,303.15,0.009525,ethanol,CCO,10.1021/acs.jced.9b00661
5198,O=C(O)[C@@H]1CCCN1,303.15,0.00518,ethanol,CCO,10.1021/acs.jced.9b00802
5205,OC[C@H]1O[C@@H](Oc2ccc(O)cc2)[C@H](O)[C@@H](O)[C@@H]1O,303.15,0.0035317,ethanol,CCO,10.1021/acs.jced.9b00703
5215,NC(N)=NC(N)=NCCc1ccccc1,303.15,0.004485,ethanol,CCO,10.1021/acs.jced.9b00844
5224,CN1CCN(c2c(F)cc3c(=O)c(C(=O)O)cn4c3c2OCN4C)CC1,303.15,0.0001439,ethanol,CCO,10.1021/acs.jced.9b00490
5245,Nc1c(Cl)cc([N+](=O)[O-])cc1Cl,303.15,0.002221,ethanol,CCO,10.1021/acs.jced.9b00778
5255,CN(C)[C@@H]1C(=O)C(C(N)=O)=C(O)[C@@]2(O)C(=O)C3=C(O)c4c(O)cccc4C[C@H]3C[C@@H]12,303.15,0.0002065,ethanol,CCO,10.1021/acs.jced.9b00693
5266,N[C@H](Cc1c[nH]cn1)C(=O)O,303.15,0.000433,ethanol,CCO,10.1021/acs.jced.9b00659
5278,O=C(Nc1ccc(F)cc1F)c1cccnc1Oc1cccc(C(F)(F)F)c1,303.15,0.0008574,ethanol,CCO,10.1021/acs.jced.8b00632
5288,O=P(O)(O)c1ccccc1,303.15,0.33411,ethanol,CCO,10.1021/acs.jced.9b00362
5301,OCc1ccc(O[C@@H]2O[C@H](CO)[C@@H](O)[C@H](O)[C@H]2O)cc1,303.15,0.00255,ethanol,CCO,10.1021/acs.jced.9b00286
5309,O=[N+]([O-])c1ncccc1O,303.15,0.1279,ethanol,CCO,10.1021/acs.jced.9b00564
5326,N=C(N)NC(N)=S,303.15,0.008168,ethanol,CCO,10.1021/acs.jced.9b00458
5345,CC1(C)COP(=O)(Oc2cccc(OP3(=O)OCC(C)(C)CO3)c2)OC1,303.15,0.00313,ethanol,CCO,10.1021/acs.jced.7b00695
5356,O=C(O)C=CC(=O)O.OCCOCCN1CCN(C2=Nc3ccccc3Sc3ccccc32)CC1.OCCOCCN1CCN(C2=Nc3ccccc3Sc3ccccc32)CC1,303.15,0.000502,ethanol,CCO,10.1021/acs.jced.7b00518
5366,O=C1C=CC(=O)N1c1ccccc1Br,303.15,0.02872,ethanol,CCO,10.1021/acs.jced.9b00560
5386,C[C@]12CCC3=C4CCC(=O)C=C4CC[C@H]3[C@@H]1CC[C@@]2(O)CC#N,303.15,0.00353,ethanol,CCO,10.1021/acs.jced.9b00696
5392,c1cc(-n2c3ccccc3c3ccccc32)cc(-n2c3ccccc3c3ccccc32)c1,303.15,0.000802,ethanol,CCO,10.1021/acs.jced.9b00432
5399,N[C@@H](CO)C(=O)O,303.15,1.9e-05,ethanol,CCO,10.1021/acs.jced.9b00460
5410,Cc1nc(N)nc(N)n1,303.15,0.0004849,ethanol,CCO,10.1021/acs.jced.9b00593
5440,N[C@@H](Cc1c[nH]c2ccccc12)C(=O)O,303.15,0.00024,ethanol,CCO,10.1021/acs.jced.9b00562
5453,Cc1cnc(C(=O)O)cn1,303.15,2.57e-05,ethanol,CCO,10.1021/acs.jced.9b00406
5460,Nc1nnn[nH]1,303.15,0.001207,ethanol,CCO,10.1021/acs.jced.9b00385
5466,NNC(=O)NN.O=[N+]([O-])NC1=NC(C2N=NC(N[N+](=O)[O-])=N2)N=N1,303.15,0.0001011,ethanol,CCO,10.1021/acs.jced.9b00275
5491,Sc1nc2ccccc2[nH]1,303.15,0.01141,ethanol,CCO,10.1021/acs.jced.9b00190
5498,Cc1c(C(=O)O)cc([N+](=O)[O-])cc1[N+](=O)[O-],303.15,0.06953,ethanol,CCO,10.1021/acs.jced.9b00497
5510,CC(=NC#N)N(C)Cc1ccc(Cl)nc1,303.15,0.03817,ethanol,CCO,10.1021/acs.jced.9b00294
5519,Cc1n[nH]c2cc([N+](=O)[O-])ccc12,303.15,0.01,ethanol,CCO,10.1021/acs.jced.8b01256
5531,NS(=O)(=O)c1ccccc1,303.15,0.03548,ethanol,CCO,10.1021/acs.jced.9b00360
5542,CC(=O)c1c(C)c([N+](=O)[O-])c(C(C)(C)C)c([N+](=O)[O-])c1C,303.15,0.005118,ethanol,CCO,10.1021/acs.jced.9b00310
5550,N#Cc1cccc([N+](=O)[O-])c1C#N,303.15,0.002317,ethanol,CCO,10.1021/acs.jced.8b01250
5561,O=Cc1cc([N+](=O)[O-])ccc1O,303.15,0.004666,ethanol,CCO,10.1021/acs.jced.9b00232
5576,N[C@H](CC(=O)O)C(=O)O,303.15,0.0004595,ethanol,CCO,10.1021/acs.jced.9b00320
5588,N#CCc1ccccc1[N+](=O)[O-],303.15,0.01557,ethanol,CCO,10.1021/acs.jced.9b00243
5608,CC1(C)[C@@H]2CC[C@@]1(C)[C@H](O)C2,303.15,0.3687,ethanol,CCO,10.1021/acs.jced.9b00045
5622,CC12CCC(CC1=O)C2(C)C,303.15,0.3655,ethanol,CCO,10.1021/acs.jced.9b00045
5637,Nc1cc([N+](=O)[O-])ccc1Cl,303.15,0.0227,ethanol,CCO,10.1021/acs.jced.8b00931
5646,CCOC(=O)[C@@H](C)Oc1ccc(Oc2cnc3cc(Cl)ccc3n2)cc1,303.15,0.003901,ethanol,CCO,10.1021/acs.jced.8b01181
5655,N#CCC(N)=O,303.15,0.01572,ethanol,CCO,10.1021/acs.jced.8b01205
5664,Cc1cccc(C(=O)O)c1N,303.15,0.03847,ethanol,CCO,10.1021/acs.jced.8b01226
5672,NC(=O)c1ccc([N+](=O)[O-])cc1,303.15,0.00351,ethanol,CCO,10.1021/acs.jced.9b00065
5683,Nc1nc2c(ncn2COC(CO)CO)c(=O)[nH]1,303.15,0.0001324,ethanol,CCO,10.1021/acs.jced.8b01080
5691,C[C@@H](O)[C@H]1C(=O)N2C(C(=O)[O-])=C(SC3Cn4cnc[n+]4C3)[C@H](C)[C@H]12,303.15,2.904e-05,ethanol,CCO,10.1021/acs.jced.8b01051
5701,O=C(O)Cc1c[nH]c2ccccc12,303.15,1.726e-05,ethanol,CCO,10.1021/acs.jced.8b01265
5712,CC#C[C@]1(O)CC[C@H]2[C@@H]3CCC4=CC(=O)CCC4=C3[C@@H](c3ccc(N(C)C)cc3)C[C@@]21C,303.15,0.000341,ethanol,CCO,10.1021/acs.jced.8b01062
5720,NC(=O)c1ccc(N)cc1,303.15,0.008833,ethanol,CCO,10.1021/acs.jced.8b01144
5729,CC(=O)N(CC(O)CO)c1c(I)c(C(=O)NCC(O)CO)c(I)c(C(=O)NCC(O)CO)c1I,303.15,0.001924,ethanol,CCO,10.1021/acs.jced.8b01101
5740,CC(C)N1C(=O)N(c2ccccc2)CSC1=NC(C)(C)C,303.15,0.02282,ethanol,CCO,10.1021/acs.jced.8b01099
5748,COC(=O)Nc1nc2ccc(C(=O)c3ccc(F)cc3)cc2[nH]1,303.15,5.436e-06,ethanol,CCO,10.1021/acs.jced.8b01126
5770,Cc1nc(C)c(C)nc1C,303.15,0.1864,ethanol,CCO,10.1021/acs.jced.8b00888
5778,Nc1nc(Cl)c2[nH]cnc2n1,303.15,0.0001251,ethanol,CCO,10.1021/acs.jced.8b01014
5791,COc1c(N2CCNC(C)C2)c(F)cc2c(=O)c(C(=O)O)cn(C3CC3)c12,303.15,0.000829,ethanol,CCO,10.1021/acs.jced.8b00902
5799,CCOC(=O)C1=C[C@]2(CC)CCCN3CCc4c(n1c1ccccc41)[C@@H]32,303.15,0.0012637,ethanol,CCO,10.1021/acs.jced.8b00663
5809,N#CCc1ccc([N+](=O)[O-])cc1,303.15,0.005357,ethanol,CCO,10.1021/acs.jced.8b00811
5820,COc1ccc(Cl)cc1C(=O)NCCc1ccc(S(=O)(=O)NC(=O)NC2CCCCC2)cc1,303.15,0.00031628,ethanol,CCO,10.1021/acs.jced.8b00717
5829,NNC(=O)c1ccncc1,303.15,0.005494,ethanol,CCO,10.1021/acs.jced.8b00785
5838,CC[C@@H](C(N)=O)N1CCCC1=O,303.15,0.07583,ethanol,CCO,10.1021/acs.jced.8b00720
5845,O=C(O)c1cc2ccccc2cc1O,303.15,0.02939,ethanol,CCO,10.1021/acs.jced.8b00578
5858,CCOC(=O)[C@H](CCc1ccccc1)N[C@@H](C)C(=O)O,303.15,0.003961,ethanol,CCO,10.1021/acs.jced.8b00333
5868,CCOC(=O)[C@H](CCc1ccccc1)N[C@@H](C)C(=O)N1CCC[C@H]1C(=O)O.O=C(O)/C=C\C(=O)O,303.15,0.002917,ethanol,CCO,10.1021/acs.jced.8b00333
5877,CS(=O)(=O)O.Cc1ccc(NC(=O)c2ccc(CN3CCN(C)CC3)cc2)cc1Nc1nccc(-c2cccnc2)n1,303.15,0.0004167,ethanol,CCO,10.1021/acs.jced.8b00551
5895,Cc1ccc(S(N)(=O)=O)cc1,303.15,0.06082,ethanol,CCO,10.1021/acs.jced.7b00714
5903,Cc1ccccc1S(N)(=O)=O,303.15,0.03503,ethanol,CCO,10.1021/acs.jced.7b00714
5912,N#Cc1cccc([N+](=O)[O-])c1,303.15,0.008726,ethanol,CCO,10.1021/acs.jced.7b00615
5935,CS(=O)(=O)c1ccc([C@@H](O)[C@@H](CO)NC(=O)C(Cl)Cl)cc1,303.15,0.0006246,ethanol,CCO,10.1021/acs.jced.7b00542
5943,NC(=O)c1cccnc1,303.15,0.053669,ethanol,CCO,10.1021/acs.jced.8b00560
5954,COCC(=O)Nc1c(I)c(C(=O)NCC(O)CO)c(I)c(C(=O)N(C)CC(O)CO)c1I,303.15,0.0003837,ethanol,CCO,10.1021/acs.jced.8b00416
5984,Nc1nc(Cl)cc(Cl)n1,303.15,0.002151,ethanol,CCO,10.1021/acs.jced.8b00292
5993,O=C(O)c1c(O)cccc1O,303.15,0.28595,ethanol,CCO,10.1021/acs.jced.6b00957
6001,O=C(c1ccccc1)C(O)c1ccccc1,303.15,0.00322,ethanol,CCO,10.1021/acs.jced.7b00238
6010,COc1cc(C(=O)O)cc(OC)c1O,303.15,0.01885,ethanol,CCO,10.1021/acs.jced.7b00333
6040,On1nnc2ccccc21,303.15,0.0605,ethanol,CCO,10.1021/acs.jced.7b00316
6047,CC(C)(C)c1ccc(C(=O)O)cc1,303.15,0.1032,ethanol,CCO,10.1021/acs.jced.6b00965
6059,O=C(O)Cc1cccc2ccccc12,303.15,0.0628,ethanol,CCO,10.1021/acs.jced.6b00816
6071,COc1ccc(CN2CCNCC2)c(OC)c1OC.Cl,303.15,0.0009866,ethanol,CCO,10.1021/acs.jced.8b00235
6081,O=c1nc[nH]c2[nH]ncc12,303.15,8.966e-05,ethanol,CCO,10.1021/acs.jced.8b00430
6092,Cc1cc(C)nc(Nc2ccccc2)n1,303.15,0.0332,ethanol,CCO,10.1021/acs.jced.8b00124
6102,CC(=O)c1cccc([N+](=O)[O-])c1,303.15,0.01581,ethanol,CCO,10.1021/acs.jced.8b00192
6111,CC(=O)c1ccc([N+](=O)[O-])cc1,303.15,0.01896,ethanol,CCO,10.1021/acs.jced.8b00192
6121,COc1ccc(C(=O)N2CCCC2=O)cc1,303.15,0.004958,ethanol,CCO,10.1021/acs.jced.8b00023
6133,Nc1ccc(C(=O)O)cc1.[K],303.15,0.00238,ethanol,CCO,10.1021/acs.jced.7b00978
6141,Nc1ccc(S(=O)(=O)Nc2ccc(Cl)nn2)cc1,303.15,0.006158,ethanol,CCO,10.1021/acs.jced.7b01134
6150,CS(=O)(=O)c1ccc([C@@H](O)[C@@H](CF)NC(=O)C(Cl)Cl)cc1,303.15,0.003695,ethanol,CCO,10.1021/acs.jced.8b00043
6160,O=C(c1ccccc1)c1ccccc1,303.15,0.2082,ethanol,CCO,10.1021/acs.jced.8b00196
6179,O=C(c1ccccc1)C(O)c1ccccc1,303.15,0.002801,ethanol,CCO,10.1021/acs.jced.7b00743
6194,Cc1ccc(S(=O)(=O)O)cc1.Cc1ccc(S(=O)(=O)O)cc1.OCCN(CCO)c1nc(N2CCCCC2)c2nc(N(CCO)CCO)nc(N3CCCCC3)c2n1,303.15,0.000881,ethanol,CCO,10.1021/acs.jced.7b00825
6205,O=C1O[C@H]([C@@H](O)CO)C(O)=C1O.[Na],303.15,4.41e-05,ethanol,CCO,10.1021/acs.jced.7b00846
6214,C[C@@H]1O[C@@H]1P(=O)([O-])[O-].[Na+].[Na+],303.15,0.0005483,ethanol,CCO,10.1021/acs.jced.7b00638
6222,CO/C=C(/C(=O)OC)c1ccccc1Oc1cc(Oc2ccccc2C#N)ncn1,303.15,0.001711,ethanol,CCO,10.1021/acs.jced.7b00669
6230,O=C(O)CS.[Na],303.15,0.001573,ethanol,CCO,10.1021/acs.jced.7b00245
6257,O=[N+]([O-])N1C2C3N([N+](=O)[O-])C1C1N([N+](=O)[O-])C(C(N1[N+](=O)[O-])N3[N+](=O)[O-])N2[N+](=O)[O-],303.15,0.0007198,ethanol,CCO,10.1021/acs.jced.6b00761
6265,CCCCC1C(=O)N(c2ccccc2)N(c2ccccc2)C1=O,303.15,0.01,ethanol,CCO,10.1021/acs.jced.6b00911
6274,CCOC(=O)N1CCC(=C2c3ccc(Cl)cc3CCc3cccnc32)CC1,303.15,0.02917,ethanol,CCO,10.1021/acs.jced.6b00721
6284,CO[C@@]1(NC(=O)CSCC#N)C(=O)N2C(C(=O)[O-])=C(CSc3nnnn3C)CS[C@@H]21.[Na+],303.15,0.000818,ethanol,CCO,10.1021/acs.jced.6b00741
6297,CC(=O)c1ccc(S(C)(=O)=O)cc1,303.15,0.0221,ethanol,CCO,10.1021/acs.jced.6b00617
6305,COC(=O)c1c(C)cc(O)c(C)c1O,303.15,0.1179,ethanol,CCO,10.1021/acs.jced.6b00646
6315,O=C1NC23NC(=O)NC2(N1)C(=O)NC3=O,303.15,0.0002135,ethanol,CCO,10.1021/acs.jced.6b00349
6321,O=C(O)/C=C/c1ccc(O)cc1,303.15,0.0507,ethanol,CCO,10.1021/acs.jced.6b00361
6337,O=C1NC(=O)c2cc([N+](=O)[O-])ccc21,303.15,0.002435,ethanol,CCO,10.1021/acs.jced.6b00230
6346,[NH3+]O.[NH3+]O.[O-]n1nnnc1-c1nnnn1[O-],303.15,5.918e-06,ethanol,CCO,10.1021/acs.jced.6b00009
6356,CCOC(=O)c1ccc(N)cc1,303.15,0.1149,ethanol,CCO,10.1021/acs.jced.6b00037
6372,CS(=O)(=O)c1ccc(C=O)cc1,303.15,0.001916,ethanol,CCO,10.1021/acs.jced.5b01053
6380,OC[C@H](O)[C@@H](O)[C@H](O[C@H]1O[C@H](CO)[C@@H](O)[C@H](O)[C@H]1O)[C@H](O)CO,303.15,4.4e-05,ethanol,CCO,10.1021/acs.jced.5b00565
6413,C=C(C)[C@@H]1CC[C@]2(C(=O)O)CC[C@]3(C)[C@H](CC[C@@H]4[C@@]5(C)CCC(=O)C(C)(C)[C@@H]5CC[C@]43C)[C@@H]12,303.15,0.00617,ethanol,CCO,10.1021/acs.jced.5b00122
6419,COc1cc(C(=O)O)ccc1O,303.15,0.0384,ethanol,CCO,10.1021/acs.jced.5b00619
6428,O=[N+]([O-])c1cccc(S(=O)(=O)[O-])c1.[Na+],303.15,0.006991,ethanol,CCO,10.1021/acs.jced.5b00783
6437,O=[N+]([O-])c1ccc(S(=O)(=O)[O-])cc1.[Na+],303.15,0.001641,ethanol,CCO,10.1021/acs.jced.5b00783
6459,O=S(=O)(c1ccc(O)cc1)c1ccc(O)cc1,303.15,0.0009241,ethanol,CCO,10.1021/acs.jced.5b00714
6468,O=Cc1ccc2ccccc2c1,303.15,0.1098,ethanol,CCO,10.1021/acs.jced.5b00377
6472,CN1C(C(=O)Nc2ccccn2)=C(O)c2sccc2S1(=O)=O,303.15,4.11e-05,ethanol,CCO,10.1021/acs.jced.5b00382
6493,Nc1ccc(Cc2ccc(N)cc2)cc1,303.15,0.0637,ethanol,CCO,10.1021/je501111d
6504,C=C1C[C@]23C[C@H]1CC[C@H]2[C@@]12CC[C@H](O)[C@@](C)(C(=O)O1)[C@H]2[C@@H]3C(=O)O,303.15,0.001592,ethanol,CCO,10.1021/acs.jced.5b00190
6519,CCOC(=O)C1(c2ccccc2)CCN(CCC(C#N)(c2ccccc2)c2ccccc2)CC1,303.15,0.0023008,ethanol,CCO,10.1021/je5010033
6526,COc1ccc(C(=O)O)c(OC)c1,303.15,0.0244,ethanol,CCO,10.1021/je501045s
6545,CC1(C)COC(=O)[C@@H]1O,303.15,0.5525,ethanol,CCO,10.1021/je500996n
6582,O=C(O)c1ccc(O)c(O)c1,303.15,0.0495,ethanol,CCO,10.1021/je500519y
6591,Nc1cc(Cl)nnc1Cl,303.15,0.017102,ethanol,CCO,10.1021/je500286x
6603,Nc1ccc(S(=O)(=O)O)cc1,303.15,0.0003,ethanol,CCO,10.1021/je500867u
6622,c1ccc2c(c1)sc1ccccc12,303.15,0.009187,ethanol,CCO,10.1021/je500437m
6665,C=CC1=C(C(=O)O)N2C(=O)[C@@H](NC(=O)/C(=N\OCC(=O)O)c3csc(N)n3)[C@H]2SC1.O.O.O,303.15,0.003705,ethanol,CCO,10.1021/je5000605
6675,C[N+](C)(C)C[C@H](O)CC(=O)[O-],303.15,0.051747,ethanol,CCO,10.1021/je500078n
6685,CCN1CCN(c2cc3c(cc2F)c(=O)c(C(=O)O)cn3C2CC2)CC1,303.15,0.0006314,ethanol,CCO,10.1021/je5002158
6693,COc1ccc([C@@H]2CC(=O)c3c(O)cc(O[C@@H]4O[C@H](CO[C@@H]5O[C@@H](C)[C@H](O)[C@@H](O)[C@H]5O)[C@@H](O)[C@H](O)[C@H]4O)cc3O2)cc1O,303.15,3.95e-05,ethanol,CCO,10.1021/je500206w
6736,OC(Cn1cncn1)(Cn1cncn1)c1ccc(F)cc1F,303.15,0.0147,ethanol,CCO,10.1021/je4010257
6742,CN1CC(=O)N2C(CC3c4ccccc4NC3C2C2CCC3OCOC3C2)C1=O,303.15,0.000248,ethanol,CCO,10.1021/je400982r
6752,CC[C@H]1OC(=O)[C@H](C)[C@@H](O[C@H]2C[C@@](C)(OC)[C@@H](O)[C@H](C)O2)[C@H](C)[C@@H](O[C@@H]2O[C@H](C)C[C@H](N(C)C)[C@H]2O)[C@](C)(O)C[C@@H](C)CN(C)[C@H](C)[C@@H](O)[C@]1(C)O.O,303.15,0.0451,ethanol,CCO,10.1021/je400899e
6788,O=[N+]([O-])c1ccc(Cl)c(Cl)c1,303.15,0.1192,ethanol,CCO,10.1021/je400507u
6794,O=C1OC(=O)c2ccc(Br)c3cccc1c23,303.15,0.0001306,ethanol,CCO,10.1021/je400259a
6799,CCNc1nc(Cl)nc(NC(C)C)n1,303.15,0.0046608,ethanol,CCO,10.1021/je400639m
6803,O=P(Oc1ccccc1)(Oc1ccccc1)N1CCN(P(=O)(Oc2ccccc2)Oc2ccccc2)CC1,303.15,0.00074571,ethanol,CCO,10.1021/je400412z
6826,O=[N+]([O-])c1nonc1-c1no[n+]([O-])c1-c1nonc1[N+](=O)[O-],303.15,0.00590213,ethanol,CCO,10.1021/je4005992
6852,CC1=C(C(=O)O)N2C(=O)[C@@H](NC(=O)[C@H](N)C3=CCC=CC3)[C@H]2SC1,303.15,0.000368,ethanol,CCO,10.1021/je400218d
6912,Cc1nc(-c2ccc(OCC(C)C)c(C#N)c2)sc1C(=O)O,303.15,0.0026885,ethanol,CCO,10.1021/je300647k
6941,Nc1cccnn1,303.15,0.02661,ethanol,CCO,10.1021/je300517q
6973,c1ccc2c(c1)oc1ccccc12,303.15,0.0489,ethanol,CCO,10.1021/je201282d
6984,O=C1c2ccccc2-c2ccccc21,303.15,0.0562,ethanol,CCO,10.1021/je201282d
7015,O=[N+]([O-])c1cc([N+](=O)[O-])c(O)c(Cl)c1O,303.15,0.00355,ethanol,CCO,10.1021/je1011423
7032,Nc1cc(N2CCCCC2)nc(N)[n+]1[O-],303.15,0.00678,ethanol,CCO,10.1021/je1012839
7095,CCc1ccc(CCOc2ccc(CC3SC(=O)NC3=O)cc2)nc1.Cl,303.15,0.0012085,ethanol,CCO,10.1021/je101230a
7160,C[C@@H]1[C@H]2C3=CC[C@@H]4[C@@]5(C)C[C@@H](O)[C@H](O)[C@@](C)(CO)[C@@H]5CC[C@@]4(C)[C@]3(C)CC[C@@]2(C(=O)O[C@@H]2O[C@H](CO[C@@H]3O[C@H](CO)[C@@H](O[C@@H]4O[C@@H](C)[C@H](O)[C@@H](O)[C@H]4O)[C@H](O)[C@H]3O)[C@@H](O)[C@H](O)[C@H]2O)CC[C@H]1C,303.15,0.0001425,ethanol,CCO,10.1021/je101208p
7172,CCOc1nc2cccc(C(=O)OC(C)OC(=O)OC3CCCCC3)c2n1Cc1ccc(-c2ccccc2-c2nnn[nH]2)cc1,303.15,0.00163,ethanol,CCO,10.1021/je101020m
7190,O=C(O)CC(O)(CC(=O)O)C(=O)O,303.15,0.3027,ethanol,CCO,10.1021/je101167z
7211,COC(=O)/C=C/C(=O)OC,303.15,0.009081,ethanol,CCO,10.1021/je100964a
7236,O=P1(Oc2ccccc2)OCC2(CO1)COP(=O)(Oc1ccccc1)OC2,303.15,0.00157,ethanol,CCO,10.1021/je100341q
7290,N[C@@H](Cc1ccc([N+](=O)[O-])cc1[N+](=O)[O-])C(=O)O,303.15,0.00035,ethanol,CCO,10.1021/je100352r
7321,Oc1cc(O)c2cc(O)c(-c3cc(O)c(O)c(O)c3)[o+]c2c1,303.15,6.13e-08,ethanol,CCO,10.1021/je900851k
7336,CN/C(=C\[N+](=O)[O-])NCCSCc1csc(CN(C)C)n1,303.15,0.01666,ethanol,CCO,10.1021/je1000928
7348,CC[C@H](CC[C@@H](C)[C@H]1CC[C@H]2[C@@H]3CC=C4C[C@@H](O)CC[C@]4(C)[C@H]3CC[C@@]21C)C(C)C,303.15,0.003281,ethanol,CCO,10.1021/je9009909
7357,Nc1ccc(S(=O)(=O)Nc2ncccn2)cc1,303.15,6.012e-05,ethanol,CCO,10.1021/je900742p
7366,Nc1ccc(O)c(C(=O)O)c1,303.15,0.002491,ethanol,CCO,10.1021/je900646u
7378,OC[C@H]1O[C@H](O[C@]2(CCl)O[C@H](CCl)[C@@H](O)[C@@H]2O)[C@H](O)[C@@H](O)[C@H]1Cl,303.15,0.01583,ethanol,CCO,10.1021/je9008427
7463,CP1(=O)OCC2(CO1)COP(C)(=O)OC2,303.15,0.00132,ethanol,CCO,10.1021/je9004189
7480,CC(C)(C)c1cc(CCC(=O)OCC(COC(=O)CCc2cc(C(C)(C)C)c(O)c(C(C)(C)C)c2)(COC(=O)CCc2cc(C(C)(C)C)c(O)c(C(C)(C)C)c2)COC(=O)CCc2cc(C(C)(C)C)c(O)c(C(C)(C)C)c2)cc(C(C)(C)C)c1O,303.15,0.0006846,ethanol,CCO,10.1021/je900435t
7559,COc1cc(OC)cc(C(=O)O)c1,303.15,0.006075,ethanol,CCO,10.1021/je900190n
7564,N#Cc1ccc(C(=O)O)cc1,303.15,0.02657,ethanol,CCO,10.1021/je900190n
7569,CC(=O)Oc1ccc(C(=O)O)cc1,303.15,0.03018,ethanol,CCO,10.1021/je900190n
7574,Nc1cc(N)cc(C(=O)O)c1,303.15,0.003419,ethanol,CCO,10.1021/je900190n
7579,O=C(O)c1ccc(Cl)cc1Cl,303.15,0.06933,ethanol,CCO,10.1021/je900190n
7603,NC[C@H]1O[C@H](O[C@@H]2[C@@H](N)C[C@@H](N)[C@H](O[C@H]3O[C@H](CO)[C@@H](O)[C@H](N)[C@H]3O)[C@H]2O)[C@H](N)C[C@@H]1O,303.15,0.0019115,ethanol,CCO,10.1021/je800991v
7613,CCc1occc(=O)c1O,303.15,0.0974,ethanol,CCO,10.1021/je9000729
7621,CC1=C(/C=C/C(C)=C/C=C/C(C)=C/C=C/C=C(C)/C=C/C=C(C)/C=C/C2=C(C)C(=O)CCC2(C)C)C(C)(C)CCC1=O,303.15,5.6e-06,ethanol,CCO,10.1021/je800801x
7649,Nc1ccccn1,303.15,0.6506,ethanol,CCO,10.1021/je800841v
7676,CN1CCN(c2cc3c(cc2F)c(=O)c(C(=O)O)cn3-c2ccc(F)cc2)CC1,303.15,0.0636,ethanol,CCO,10.1021/je800742d
7696,O=C(Oc1ccccc1)c1ccccc1O,303.15,0.2893,ethanol,CCO,10.1021/je800668j
7698,CC(=O)OCC(=O)[C@@]12N=C(C)O[C@@H]1C[C@H]1[C@@H]3CCC4=CC(=O)C=C[C@]4(C)[C@H]3[C@@H](O)C[C@@]12C,303.15,0.00240159,ethanol,CCO,10.1021/je800790g
7719,CC[n+]1ccccc1.F[P-](F)(F)(F)(F)F,303.15,0.000561,ethanol,CCO,10.1021/je800618x
7814,C1CN2CCN1CC2,303.15,0.372,ethanol,CCO,10.1021/je8005375
7823,CCC[C@@H]1C[C@@H](C(=O)N[C@H]([C@H](C)Cl)[C@H]2O[C@H](SC)[C@H](OP(=O)(O)O)[C@@H](O)[C@H]2O)N(C)C1,303.15,1.39e-05,ethanol,CCO,10.1021/je800291t
7844,CCCCc1nc(Cl)c(CO)n1Cc1ccc(-c2ccccc2-c2nnn[n-]2)cc1.[K+],303.15,0.04729,ethanol,CCO,10.1021/je7007236
7850,CC(=O)C1=CC[C@H]2[C@@H]3CCC4=CC(=O)C=C[C@]4(C)[C@H]3[C@@H](O)C[C@]12C,303.15,0.002525,ethanol,CCO,10.1021/je800174u
7885,CO[C@H]1/C=C/O[C@@]2(C)Oc3c(C)c(O)c4c(O)c(c(/C=N/N5CCN(C6CCCC6)CC5)c(O)c4c3C2=O)NC(=O)/C(C)=C\C=C\[C@H](C)[C@H](O)[C@@H](C)[C@@H](O)[C@@H](C)[C@H](OC(C)=O)[C@@H]1C,303.15,0.000604,ethanol,CCO,10.1021/je7007457
8016,CCC[C@@H]1C[C@@H](C(=O)N[C@H]([C@H](C)Cl)[C@H]2O[C@H](SC)[C@H](OP(=O)(O)O)[C@@H](O)[C@H]2O)N(C)C1,303.15,0.00024,ethanol,CCO,10.1021/je700216w
8062,OC[C@H](O)C(O)[C@H](O)CO,303.15,0.003088,ethanol,CCO,10.1021/je700131z
8078,C1CN2CCN1CC2,303.15,0.0102,ethanol,CCO,10.1021/je700186v
8119,c1nc[nH]n1,303.15,0.2047,ethanol,CCO,10.1021/je060452c
8172,O=C(O)c1cc([N+](=O)[O-])cc([N+](=O)[O-])c1O,303.15,0.08624,ethanol,CCO,10.1021/acs.jced.1c00396
8182,CC(C)(Oc1ccc(C2CC2(Cl)Cl)cc1)C(=O)O,303.15,0.2392,ethanol,CCO,10.1021/acs.jced.1c00276
8192,CNc1nc(C)nc(OC)n1,303.15,0.09143,ethanol,CCO,10.1021/acs.jced.1c00288
8202,COCCOc1ccccc1S(=O)(=O)NC(=O)Nc1nc(OC)nc(OC)n1,303.15,0.002331,ethanol,CCO,10.1021/acs.jced.1c00357
8212,COC(=O)c1sccc1S(=O)(=O)NC(=O)Nc1nc(C)nc(OC)n1,303.15,7.41e-05,ethanol,CCO,10.1021/acs.jced.1c00267
8221,CN(C)C(=N)N=C(N)N.Cl,303.15,0.002118,ethanol,CCO,10.1021/acs.jced.1c00338
8231,CCCc1cc(=O)[nH]c(=S)[nH]1,303.15,0.005924,ethanol,CCO,10.1021/acs.jced.1c00071
8240,OCC(CO)(CO)CO,303.15,0.001329,ethanol,CCO,10.1021/acs.jced.1c00080
8250,O=C1C=CC(=O)N1c1ccccc1Br,303.15,0.02872,ethanol,CCO,10.1021/acs.jced.1c00151
8257,Nc1ccc(Oc2ccc(N)cc2)cc1,303.15,0.0012,ethanol,CCO,10.1021/acs.jced.0c00965
8269,COC(=O)c1c(Cl)nn(C)c1S(=O)(=O)NC(=O)Nc1nc(OC)cc(OC)n1,303.15,7.293e-05,ethanol,CCO,10.1021/acs.jced.0c00633
8279,CCS(=O)(=O)c1cccnc1S(=O)(=O)NC(=O)Nc1nc(OC)cc(OC)n1,303.15,4.764e-05,ethanol,CCO,10.1021/acs.jced.0c00632
8289,O=C(Nc1ccc(F)cc1F)c1cccnc1Oc1cccc(C(F)(F)F)c1,303.15,0.0009012,ethanol,CCO,10.1021/acs.jced.0c00631
8299,O=C1OC(=O)C2C3C=CC(O3)C12,303.15,0.001452,ethanol,CCO,10.1021/acs.jced.0c00569
8309,O=C1NC(=O)c2cc([N+](=O)[O-])ccc21,303.15,0.002435,ethanol,CCO,10.1021/acs.jced.0c00479
8319,Nc1cc(-c2ccncc2)c[nH]c1=O,303.15,5.835e-05,ethanol,CCO,10.1021/acs.jced.0c00393
8329,Cc1[nH]c(=O)c(C#N)cc1-c1ccncc1,303.15,2.134e-05,ethanol,CCO,10.1021/acs.jced.0c00394
8339,O=C(NCCO[N+](=O)[O-])c1cccnc1,303.15,0.002222,ethanol,CCO,10.1021/acs.jced.0c00370
8349,CCCCS(=O)(=O)N[C@@H](Cc1ccc(OCCCCC2CCNCC2)cc1)C(=O)O,303.15,0.0002883,ethanol,CCO,10.1021/acs.jced.0c00371
8359,CCOC(=O)C1(c2ccccc2)CCN(CCC(C#N)(c2ccccc2)c2ccccc2)CC1,303.15,0.002266,ethanol,CCO,10.1021/acs.jced.0c00267
8368,O=Cc1ccc(O)c(Br)c1,303.15,0.01607,ethanol,CCO,10.1021/acs.jced.0c00043
8379,CC1=NN(c2ccccc2)C(=O)C1,303.15,0.03584,ethanol,CCO,10.1021/acs.jced.9b00881
8385,CC(C(=O)O)c1ccc2c(c1)CC(=O)c1ccccc1S2,303.15,0.01204,ethanol,CCO,10.1021/acs.jced.9b01180