,SMILES,"T,K",Solubility,Solvent,SMILES_Solvent,Source
23354,O=Cc1ccc([N+](=O)[O-])cc1,303.15,0.1056,ethyl acetate,CCOC(C)=O,10.1016/j.jct.2016.09.012
23365,Nc1nnc[nH]1,303.15,0.003445,ethyl acetate,CCOC(C)=O,10.1016/j.jct.2016.09.033
23377,C=CC(=O)N1CCC[C@@H](n2nc(-c3ccc(Oc4ccccc4)cc3)c3c(N)ncnc32)C1,303.15,0.006179,ethyl acetate,CCOC(C)=O,10.1016/j.jct.2016.08.034
23392,CC1=NN(c2ccc(C)cc2)C(=O)C1,303.15,0.04098,ethyl acetate,CCOC(C)=O,10.1016/j.jct.2016.08.007
23407,O=[N+]([O-])c1ccc(O)c2ncccc12,303.15,0.007864,ethyl acetate,CCOC(C)=O,10.1016/j.jct.2016.04.018
23417,COc1ccc2nc(S(=O)Cc3ncc(C)c(OC)c3C)[nH]c2c1,303.15,0.002199,ethyl acetate,CCOC(C)=O,10.1016/j.jct.2015.11.005
23432,O=C1NC(=O)c2ccccc21,303.15,0.008792,ethyl acetate,CCOC(C)=O,10.1016/j.jct.2015.10.024
23449,Cc1cccc([N+](=O)[O-])c1N,303.15,0.1962,ethyl acetate,CCOC(C)=O,10.1016/j.jct.2016.05.027
23455,COc1c(O)cc2c(c1O)[C@@H]1O[C@H](CO)[C@@H](O)[C@H](O)[C@H]1OC2=O,303.15,0.000311,ethyl acetate,CCOC(C)=O,10.1016/j.jct.2016.05.003
23469,O=S(=O)(c1ccc(O)cc1)c1ccccc1O,303.15,0.05617,ethyl acetate,CCOC(C)=O,10.1016/j.jct.2016.07.001
23482,Cc1cc(C(=O)O)ccc1[N+](=O)[O-],303.15,0.01527,ethyl acetate,CCOC(C)=O,10.1016/j.jct.2016.07.023
23494,CN(C)CCOC(c1ccccc1)c1ccccc1.Cl,303.15,0.000431,ethyl acetate,CCOC(C)=O,10.1016/j.jct.2015.09.032
23505,CC(=O)O[C@H]1CC[C@@]2(C)C(=CC[C@H]3[C@@H]4CCC(=O)[C@@]4(C)CC[C@@H]32)C1,303.15,0.04941,ethyl acetate,CCOC(C)=O,10.1016/j.jct.2016.01.023
23521,N=C(Nc1ccccc1)Nc1ccccc1,303.15,0.06414,ethyl acetate,CCOC(C)=O,10.1016/j.jct.2016.03.011
23530,C/C=C/C=C/C(=O)O,303.15,0.05421,ethyl acetate,CCOC(C)=O,10.1016/j.jct.2015.02.004
23549,O=C(O)CCCCCCCCCCCC(=O)O,303.15,0.00254,ethyl acetate,CCOC(C)=O,10.1016/j.jct.2015.05.026
23565,O=[N+]([O-])c1cccc2cccc([N+](=O)[O-])c12,303.15,0.01016,ethyl acetate,CCOC(C)=O,10.1016/j.jct.2015.07.010
23578,CC(C)(C)[C@H](O)[C@H](Cc1ccc(Cl)cc1)n1cncn1,303.15,0.02903,ethyl acetate,CCOC(C)=O,10.1016/j.jct.2016.09.038
23591,CCOC(=O)Cc1c(C(=O)OCC)sc(N)c1C#N,303.15,0.04268,ethyl acetate,CCOC(C)=O,10.1016/j.jct.2015.11.025
23600,Nc1ccc(N2CCOCC2=O)cc1,303.15,0.002569,ethyl acetate,CCOC(C)=O,10.1016/j.jct.2016.01.022
23613,O=C1c2cccc(Cl)c2C(=O)N1c1ccccc1,303.15,0.003802,ethyl acetate,CCOC(C)=O,10.1016/j.jct.2016.01.003
23629,C[C@H]1[C@H]2[C@H](C[C@H]3[C@@H]4CC=C5C[C@@H](O)CC[C@]5(C)[C@H]4CC[C@@]32C)O[C@]12CC[C@@H](C)CO2,303.15,0.0027582,ethyl acetate,CCOC(C)=O,10.1016/j.jct.2011.11.009
23662,O=C(/C=C/C=C/c1ccc2c(c1)OCO2)N1CCCCC1,303.15,0.02325,ethyl acetate,CCOC(C)=O,10.1016/j.jct.2021.106555
23671,Clc1ncnc2[nH]ccc12,303.15,0.02458,ethyl acetate,CCOC(C)=O,10.1016/j.jct.2021.106493
23680,Cn1cc([N+](=O)[O-])cn1,303.15,0.020758,ethyl acetate,CCOC(C)=O,10.1016/j.fluid.2018.05.023
23686,CC1(C)CCC2=C(O1)c1ccccc1C(=O)C2=O,303.15,0.00936,ethyl acetate,CCOC(C)=O,10.1016/j.fluid.2018.05.005
23696,Cc1cc(C)c(C(=O)P(=O)(c2ccccc2)c2ccccc2)c(C)c1,303.15,0.1603,ethyl acetate,CCOC(C)=O,10.1016/j.fluid.2018.01.015
23703,O=C1NC(=O)C2C3C=CC(C3)C12,303.15,0.017065,ethyl acetate,CCOC(C)=O,10.1016/j.fluid.2019.112301
23719,CCOc1ccccc1C(N)=O,303.15,0.00835,ethyl acetate,CCOC(C)=O,10.1016/j.fluid.2016.08.019
23726,COC(=O)[C@H](N)c1ccccc1.Cl,303.15,0.00015,ethyl acetate,CCOC(C)=O,10.1016/j.fluid.2016.02.020
23734,Cc1cc(C)cc(OCC2CNC(=O)O2)c1,303.15,0.0136528,ethyl acetate,CCOC(C)=O,10.1016/j.fluid.2015.09.013
23760,O=C(O)CN(CC(=O)O)CP(=O)(O)O,303.15,0.0007908,ethyl acetate,CCOC(C)=O,10.1016/j.fluid.2014.08.036
23772,Cc1nc2n(c(=O)c1CCN1CCC(c3noc4cc(F)ccc34)CC1)CCCC2,303.15,0.002628,ethyl acetate,CCOC(C)=O,10.1016/j.fluid.2014.04.028
23782,O=C1C=CC(=O)O1,303.15,0.03985,ethyl acetate,CCOC(C)=O,10.1016/j.fluid.2014.01.008
23798,C/C=C/C(=O)O,303.15,0.4595,ethyl acetate,CCOC(C)=O,10.1016/j.fluid.2013.06.038
23805,COC(=O)C1CC(=O)C(C(=O)OC)CC1=O,303.15,0.00914,ethyl acetate,CCOC(C)=O,10.1016/j.fluid.2013.06.037
23825,COC(=O)[C@@H](N)CS.Cl,303.15,0.00013,dichloromethane,ClCCl,10.1021/acs.jced.0c00795
23832,O=C(Nc1ccccc1)c1ccccc1,303.15,0.012522,dichloromethane,ClCCl,10.1021/acs.jced.0c00167
23839,N=C(N)NCCC[C@H](N)C(=O)O.O=C1CC[C@@H](C(=O)O)N1,303.15,0.000282,dichloromethane,ClCCl,10.1021/acs.jced.0c01074
23842,CSCCC(NC(C)=O)C(=O)O,303.15,0.00052,dichloromethane,ClCCl,10.1021/acs.jced.1c00064
23849,O=C(O)[C@@H]1C[C@@H](O)CN1,303.15,0.000511,dichloromethane,ClCCl,10.1021/acs.jced.0c00794
23856,CN1COCN(Cc2cnc(Cl)s2)/C1=N/[N+](=O)[O-],303.15,0.02488,dichloromethane,ClCCl,10.1021/acs.jced.0c00752
23863,O=C(O)[C@@H]1CSCN1,303.15,0.000292,dichloromethane,ClCCl,10.1021/acs.jced.0c00996
23868,CC1=NN(c2ccccc2)C(=O)C1,303.15,0.078838,dichloromethane,ClCCl,10.1021/acs.jced.0c00290
23873,O=C(O)CNCc1ccccc1,303.15,5.7e-05,dichloromethane,ClCCl,10.1021/acs.jced.1c00050
23878,CCOC(=O)[C@@H]1CSCN1.Cl,303.15,0.018662,dichloromethane,ClCCl,10.1021/acs.jced.1c00079
23883,CC(C)(C)OC(=O)N1CCC[C@H]1C(=O)O,303.15,0.125493,dichloromethane,ClCCl,10.1021/acs.jced.1c00201
23889,CNC(=O)c1cc(Oc2ccc(N)cc2)ccn1,303.15,0.04132,dichloromethane,ClCCl,10.1021/acs.jced.1c00232
23898,O=C(N[C@H](C(=O)O)c1ccccc1)OCc1ccccc1,303.15,0.014892,dichloromethane,ClCCl,10.1021/acs.jced.1c00240
23899,OC[C@H]1O[C@@H](Oc2ccc(O)cc2)[C@H](O)[C@@H](O)[C@@H]1O,303.15,1.6e-05,dichloromethane,ClCCl,10.1021/acs.jced.0c00353
23908,CCOC(=O)[C@@H](N)CCc1ccccc1.Cl,303.15,0.04889,dichloromethane,ClCCl,10.1021/acs.jced.1c00485
23913,CC(=O)N1CCC[C@H]1C(=O)O,303.15,0.09744,dichloromethane,ClCCl,10.1021/acs.jced.1c00032
23918,NC1CCSC1=O,303.15,0.000356,dichloromethane,ClCCl,10.1021/acs.jced.0c01089
23923,O=[N+]([O-])N(CCO)CCO.O=[N+]([O-])O.O=[N+]([O-])O,303.15,0.36731,dichloromethane,ClCCl,10.1021/acs.jced.0c00211
23930,O=C[C@H](O)[C@H](O)[C@H](O)CO,303.15,0.0005293,dichloromethane,ClCCl,10.1021/acs.jced.0c00009
23965,c1cc(-n2c3ccccc3c3ccccc32)cc(-n2c3ccccc3c3ccccc32)c1,303.15,0.139,dichloromethane,ClCCl,10.1021/acs.jced.9b00432
23972,NS(=O)(=O)c1ccccc1,303.15,0.004953,dichloromethane,ClCCl,10.1021/acs.jced.9b00360
23981,N#CCC(N)=O,303.15,0.0009313,dichloromethane,ClCCl,10.1021/acs.jced.8b01205
24012,O=P(NCc1ccccc1)(Oc1ccccc1)Oc1ccccc1,303.15,0.12551,dichloromethane,ClCCl,10.1021/acs.jced.5b00007
24018,Nc1cc(Cl)nnc1Cl,303.15,0.0003868,dichloromethane,ClCCl,10.1021/je500286x
24042,O=P(Oc1ccccc1)(Oc1ccccc1)N1CCN(P(=O)(Oc2ccccc2)Oc2ccccc2)CC1,303.15,0.010561,dichloromethane,ClCCl,10.1021/je400412z
24045,O=[N+]([O-])c1nonc1-c1no[n+]([O-])c1-c1nonc1[N+](=O)[O-],303.15,0.00835691,dichloromethane,ClCCl,10.1021/je4005992
24085,c1ccc(OP2(Oc3ccccc3)=NP(Oc3ccccc3)(Oc3ccccc3)=NP(Oc3ccccc3)(Oc3ccccc3)=N2)cc1,303.15,0.1583,dichloromethane,ClCCl,10.1021/je1009812
24130,CC1COc2c(N3CCN(C)CC3)c(F)cc3c(=O)c(C(=O)O)cn1c23,303.15,0.004637,dichloromethane,ClCCl,10.1021/je900540d
24140,CCCCC(=O)N(Cc1ccc(-c2ccccc2-c2nn[nH]n2)cc1)[C@H](C(=O)O)C(C)C,303.15,0.00524,dichloromethane,ClCCl,10.1021/je8007815
24147,CCN1CCN(c2cc3c(cc2F)c(=O)cc(C(=O)[O-])n3C2CC2)CC1.[Na+],303.15,0.00844,dichloromethane,ClCCl,10.1021/je8005826
24156,CO[C@H]1/C=C/O[C@@]2(C)Oc3c(C)c(O)c4c(O)c(c(/C=N/N5CCN(C6CCCC6)CC5)c(O)c4c3C2=O)NC(=O)/C(C)=C\C=C\[C@H](C)[C@H](O)[C@@H](C)[C@@H](O)[C@@H](C)[C@H](OC(C)=O)[C@@H]1C,303.15,0.0209,dichloromethane,ClCCl,10.1021/je7007457
24187,O=P(Oc1ccccc1)(Oc1ccccc1)N1CCN(P(=O)(Oc2ccccc2)Oc2ccccc2)CC1,303.15,0.01025,dichloromethane,ClCCl,10.1021/je500678z
24194,CC(C)Oc1ccc2c(=O)c(-c3ccccc3)coc2c1,303.15,0.107559,dichloromethane,ClCCl,10.1016/j.jct.2020.106231
24204,CC1(C)CO[P+]([O-])(Oc2c(Br)cc(Br)cc2Br)OC1,303.15,0.06527,dichloromethane,ClCCl,10.1016/j.fluid.2013.09.023
24221,COC(=O)[C@@H](N)CS.Cl,303.15,0.00043,acetonitrile,CC#N,10.1021/acs.jced.0c00795
24232,CC1(C)NC(=O)NC1=O,303.15,0.02272,acetonitrile,CC#N,10.1021/acs.jced.9b01020
24243,NS(=O)(=O)Cc1noc2ccccc12,303.15,0.01491,acetonitrile,CC#N,10.1021/acs.jced.0c00249
24252,CC(=O)Oc1ccccc1C(=O)Nc1ncc([N+](=O)[O-])s1,303.15,0.001576,acetonitrile,CC#N,10.1021/acs.jced.0c00254
24260,O=Cc1cc(Br)c(O)c(Br)c1,303.15,0.004517,acetonitrile,CC#N,10.1021/acs.jced.0c00376
24270,CC(=O)Nc1ccc(OC(=O)c2ccccc2OC(C)=O)cc1,303.15,0.001994,acetonitrile,CC#N,10.1021/acs.jced.0c00301
24280,CCCSc1nc(N[C@@H]2C[C@H]2c2ccc(F)c(F)c2)c2nnn([C@@H]3C[C@H](OCCO)[C@@H](O)[C@H]3O)c2n1,303.15,0.003088,acetonitrile,CC#N,10.1021/acs.jced.0c00127
24289,O=C(Nc1ccccc1)c1ccccc1,303.15,0.007424,acetonitrile,CC#N,10.1021/acs.jced.0c00167
24324,O=C1CC[C@@H](C(=O)N2CSC[C@H]2C(=O)O)N1,303.15,0.000855,acetonitrile,CC#N,10.1021/acs.jced.0c00616
24342,O=C(O)COc1ccc(Cl)cc1,303.15,0.0159,acetonitrile,CC#N,10.1021/acs.jced.1c00153
24352,Cc1cc(Cl)cc(C(=O)O)c1N,303.15,0.001976,acetonitrile,CC#N,10.1021/acs.jced.1c00047
24360,Cc1c(N)cccc1C(=O)O,303.15,0.0009856,acetonitrile,CC#N,10.1021/acs.jced.1c00109
24368,N=C(N)NCCC[C@H](N)C(=O)O.O=C1CC[C@@H](C(=O)O)N1,303.15,1.8e-05,acetonitrile,CC#N,10.1021/acs.jced.0c01074
24373,c1ccc(-n2c(-c3cc(-c4nc5ccccc5n4-c4ccccc4)cc(-c4nc5ccccc5n4-c4ccccc4)c3)nc3ccccc32)cc1,303.15,0.000149,acetonitrile,CC#N,10.1021/acs.jced.1c00163
24381,CC(=O)Nc1ccccc1[N+](=O)[O-],303.15,0.03869,acetonitrile,CC#N,10.1021/acs.jced.1c00037
24388,CSCCC(NC(C)=O)C(=O)O,303.15,0.00877,acetonitrile,CC#N,10.1021/acs.jced.1c00064
24395,Nc1cccc(S(=O)(=O)c2cccc(N)c2)c1,303.15,0.01266,acetonitrile,CC#N,10.1021/acs.jced.1c00062
24413,O=C(O)[C@@H]1C[C@@H](O)CN1,303.15,0.000146,acetonitrile,CC#N,10.1021/acs.jced.0c00794
24424,O=Cc1cc(C=O)cc(C=O)c1,303.15,0.010004,acetonitrile,CC#N,10.1021/acs.jced.0c00776
24431,O=C(O)[C@@H]1CSCN1,303.15,4.8e-05,acetonitrile,CC#N,10.1021/acs.jced.0c00996
24438,O=C(Nc1ccccc1)c1ccccc1O,303.15,0.025843,acetonitrile,CC#N,10.1021/acs.jced.0c01078
24448,O=C(O)c1cccc(O)c1O,303.15,0.01471,acetonitrile,CC#N,10.1021/acs.jced.0c01032
24457,NC(=O)[C@@H]1CCCN1,303.15,0.10577,acetonitrile,CC#N,10.1021/acs.jced.0c00961
24475,CC(=O)O[C@]1(C(C)=O)CC[C@H]2[C@@H]3C=C(Cl)C4=CC(=O)[C@@H]5C[C@@H]5[C@]4(C)[C@H]3CC[C@@]21C,303.15,0.00023902,acetonitrile,CC#N,10.1021/acs.jced.0c00803
24483,c1ccc2[nH]c(-c3cscn3)nc2c1,303.15,0.0002086,acetonitrile,CC#N,10.1021/acs.jced.0c00724
24492,Nc1ccc(Cc2ccc(N)c(Cl)c2)cc1Cl,303.15,0.03226,acetonitrile,CC#N,10.1021/acs.jced.0c00655
24503,c1cnc2[nH]ccc2c1,303.15,0.1592,acetonitrile,CC#N,10.1021/acs.jced.0c00128
24513,Nc1cccc(Cl)c1C(=O)O,303.15,0.02585,acetonitrile,CC#N,10.1021/acs.jced.0c00320
24520,CC1=NN(c2ccccc2)C(=O)C1,303.15,0.019021,acetonitrile,CC#N,10.1021/acs.jced.0c00290
24525,Cl.N=C(N=C(N)N)N1CCOCC1,303.15,0.000117,acetonitrile,CC#N,10.1021/acs.jced.0c00015
24532,Nc1nc(=O)[nH]cc1F,303.15,2.23e-05,acetonitrile,CC#N,10.1021/acs.jced.1c00206
24539,O=C(O)CNCc1ccccc1,303.15,1.7e-05,acetonitrile,CC#N,10.1021/acs.jced.1c00050
24547,O=C(O)c1cccc([N+](=O)[O-])c1O,303.15,0.07257,acetonitrile,CC#N,10.1021/acs.jced.1c00259
24556,Cl.N[C@@H](Cc1ccccc1)C(=O)OCc1ccccc1,303.15,0.000365,acetonitrile,CC#N,10.1021/acs.jced.1c00239
24563,O=C1CCc2cc(OCCCCc3nnnn3C3CCCCC3)ccc2N1,303.15,0.001866,acetonitrile,CC#N,10.1021/acs.jced.1c00302
24568,CCOC(=O)[C@@H]1CSCN1.Cl,303.15,0.002517,acetonitrile,CC#N,10.1021/acs.jced.1c00079
24573,CC(C)(C)OC(=O)N1CCC[C@H]1C(=O)O,303.15,0.024722,acetonitrile,CC#N,10.1021/acs.jced.1c00201
24581,O=C(O)c1cccc(C(=O)O)n1,303.15,0.000453,acetonitrile,CC#N,10.1021/acs.jced.1c00200
24590,CNC(=O)c1cc(Oc2ccc(N)cc2)ccn1,303.15,0.07369,acetonitrile,CC#N,10.1021/acs.jced.1c00232
24599,Nc1cccc(C(=O)O)c1,303.15,0.003576,acetonitrile,CC#N,10.1021/acs.jced.1c00247
24606,O=C(N[C@H](C(=O)O)c1ccccc1)OCc1ccccc1,303.15,0.014255,acetonitrile,CC#N,10.1021/acs.jced.1c00240
24623,CCO.C[C@H]1c2cccc(O)c2C(O)=C2C(=O)[C@]3(O)C(O)=C(C(N)=O)C(=O)[C@@H](N(C)C)[C@@H]3[C@@H](O)[C@@H]21.C[C@H]1c2cccc(O)c2C(O)=C2C(=O)[C@]3(O)C(O)=C(C(N)=O)C(=O)[C@@H](N(C)C)[C@@H]3[C@@H](O)[C@@H]21.Cl.Cl.O,303.15,0.000485,acetonitrile,CC#N,10.1021/acs.jced.0c00097
24633,O=C(O)c1cc([N+](=O)[O-])cc([N+](=O)[O-])c1O,303.15,0.02475,acetonitrile,CC#N,10.1021/acs.jced.0c00122
24644,CC(C)(c1ccc(O)cc1)c1ccc(O)cc1,303.15,0.1854,acetonitrile,CC#N,10.1021/acs.jced.0c00166
24653,O=c1cc(CBr)c2ccccc2[nH]1,303.15,0.000171,acetonitrile,CC#N,10.1021/acs.jced.0c00303
24658,OCc1ccccc1O[C@@H]1OC(CO)[C@@H](O)[C@@H](O)C1O,303.15,7.321e-05,acetonitrile,CC#N,10.1021/acs.jced.0c00332
24663,OC[C@H]1O[C@@H](Oc2ccc(O)cc2)[C@H](O)[C@@H](O)[C@@H]1O,303.15,0.000145,acetonitrile,CC#N,10.1021/acs.jced.0c00353
24670,CC(=O)NCC(=O)O,303.15,0.000409,acetonitrile,CC#N,10.1021/acs.jced.0c00983
24679,CC(=O)N1CCC[C@H]1C(=O)O,303.15,0.05577,acetonitrile,CC#N,10.1021/acs.jced.1c00032
24684,NC1CCSC1=O,303.15,0.000135,acetonitrile,CC#N,10.1021/acs.jced.0c01089
24691,CCCOC(=O)c1ccc(O)cc1,303.15,0.1018,acetonitrile,CC#N,10.1021/acs.jced.0c00584
24700,C=CC(=O)NC(C)(C)CS(=O)(=O)O,303.15,0.0002648,acetonitrile,CC#N,10.1021/acs.jced.0c00578
24710,O=C(O)Cc1ccccc1[N+](=O)[O-],303.15,0.02554,acetonitrile,CC#N,10.1021/acs.jced.0c00543
24720,O=[N+]([O-])N(CCO)CCO.O=[N+]([O-])O.O=[N+]([O-])O,303.15,0.45571,acetonitrile,CC#N,10.1021/acs.jced.0c00211
24727,O=C(O)Cc1ccc([N+](=O)[O-])cc1,303.15,0.0375,acetonitrile,CC#N,10.1021/acs.jced.0c00182
24735,N[C@@H](CS)C(=O)O,303.15,2.3e-05,acetonitrile,CC#N,10.1021/acs.jced.0c00031
24742,Oc1ccc(OCc2ccccc2)cc1,303.15,0.08207,acetonitrile,CC#N,10.1021/acs.jced.9b00817
24747,O=C([O-])/C=C/C(=O)O.[Na+],303.15,5.58e-05,acetonitrile,CC#N,10.1021/acs.jced.9b01203
24755,COC(=O)C1=C(C)NC(C)=C(C(=O)OCC(C)C)C1c1ccccc1[N+](=O)[O-],303.15,0.01969,acetonitrile,CC#N,10.1021/acs.jced.9b01036
24762,O=c1[nH]c2ccccc2c(=O)o1,303.15,0.004302,acetonitrile,CC#N,10.1021/acs.jced.9b01164
24770,O=C[C@H](O)[C@H](O)[C@H](O)CO,303.15,0.002196,acetonitrile,CC#N,10.1021/acs.jced.0c00009
24778,Cc1c(Br)cccc1C(=O)O,303.15,0.00779,acetonitrile,CC#N,10.1021/acs.jced.9b01007
24811,O=[N+]([O-])N1CN([N+](=O)[O-])CN([N+](=O)[O-])CN([N+](=O)[O-])C1,303.15,0.0028,acetonitrile,CC#N,10.1021/acs.jced.9b01192
24825,CC(=O)N[C@@H](CC(C)C)C(=O)O,303.15,0.001628,acetonitrile,CC#N,10.1021/acs.jced.9b01151
24836,CN(C)Cc1c[nH]c2ccccc12,303.15,0.01161,acetonitrile,CC#N,10.1021/acs.jced.9b00911
24841,C[C@H](N)C(=O)O,303.15,0.000157,acetonitrile,CC#N,10.1021/acs.jced.9b00743
24857,COc1cc([N+](=O)[O-])ccc1N,303.15,0.03447,acetonitrile,CC#N,10.1021/acs.jced.9b00991
24867,O=Cc1ccc(O)c(Br)c1,303.15,0.01525,acetonitrile,CC#N,10.1021/acs.jced.9b01004
24878,CCCc1ncc(C[n+]2ccccc2C)c(N)n1.Cl.[Cl-],303.15,2.35e-05,acetonitrile,CC#N,10.1021/acs.jced.9b00999
24886,Nc1ccc(Cl)cc1[N+](=O)[O-],303.15,0.07499,acetonitrile,CC#N,10.1021/acs.jced.9b00919
24897,O=C(O)c1cccnc1Cl,303.15,0.003987,acetonitrile,CC#N,10.1021/acs.jced.9b00661
24900,O=C(O)[C@@H]1CCCN1,303.15,7.8e-05,acetonitrile,CC#N,10.1021/acs.jced.9b00802
24907,OC[C@H]1O[C@@H](Oc2ccc(O)cc2)[C@H](O)[C@@H](O)[C@@H]1O,303.15,0.0001628,acetonitrile,CC#N,10.1021/acs.jced.9b00703
24917,NC(N)=NC(N)=NCCc1ccccc1,303.15,0.000596,acetonitrile,CC#N,10.1021/acs.jced.9b00844
24926,CN1CCN(c2c(F)cc3c(=O)c(C(=O)O)cn4c3c2OCN4C)CC1,303.15,0.00025,acetonitrile,CC#N,10.1021/acs.jced.9b00490
24947,Nc1c(Cl)cc([N+](=O)[O-])cc1Cl,303.15,0.003525,acetonitrile,CC#N,10.1021/acs.jced.9b00778
24957,CN(C)[C@@H]1C(=O)C(C(N)=O)=C(O)[C@@]2(O)C(=O)C3=C(O)c4c(O)cccc4C[C@H]3C[C@@H]12,303.15,0.0001881,acetonitrile,CC#N,10.1021/acs.jced.9b00693
24967,OCc1ccc(O[C@@H]2O[C@H](CO)[C@@H](O)[C@H](O)[C@H]2O)cc1,303.15,0.00147,acetonitrile,CC#N,10.1021/acs.jced.9b00286
24975,O=[N+]([O-])c1ncccc1O,303.15,0.2989,acetonitrile,CC#N,10.1021/acs.jced.9b00564
24992,N=C(N)NC(N)=S,303.15,0.006881,acetonitrile,CC#N,10.1021/acs.jced.9b00458
25008,CC1(C)COP(=O)(Oc2cccc(OP3(=O)OCC(C)(C)CO3)c2)OC1,303.15,0.01534,acetonitrile,CC#N,10.1021/acs.jced.7b00695
25020,O=C1C=CC(=O)N1c1ccccc1Br,303.15,0.07226,acetonitrile,CC#N,10.1021/acs.jced.9b00560
25042,C[C@]12CCC3=C4CCC(=O)C=C4CC[C@H]3[C@@H]1CC[C@@]2(O)CC#N,303.15,0.00313,acetonitrile,CC#N,10.1021/acs.jced.9b00696
25048,c1cc(-n2c3ccccc3c3ccccc32)cc(-n2c3ccccc3c3ccccc32)c1,303.15,0.000363,acetonitrile,CC#N,10.1021/acs.jced.9b00432
25055,N[C@@H](CO)C(=O)O,303.15,0.000198,acetonitrile,CC#N,10.1021/acs.jced.9b00460
25066,Cc1nc(N)nc(N)n1,303.15,0.0002285,acetonitrile,CC#N,10.1021/acs.jced.9b00593
25076,N[C@@H](Cc1c[nH]c2ccccc12)C(=O)O,303.15,5e-05,acetonitrile,CC#N,10.1021/acs.jced.9b00562
25089,Cc1cnc(C(=O)O)cn1,303.15,6.05e-06,acetonitrile,CC#N,10.1021/acs.jced.9b00406
25096,Nc1nnn[nH]1,303.15,0.00028,acetonitrile,CC#N,10.1021/acs.jced.9b00385
25117,Sc1nc2ccccc2[nH]1,303.15,0.00183,acetonitrile,CC#N,10.1021/acs.jced.9b00190
25124,Cc1c(C(=O)O)cc([N+](=O)[O-])cc1[N+](=O)[O-],303.15,0.012,acetonitrile,CC#N,10.1021/acs.jced.9b00497
25136,Cc1n[nH]c2cc([N+](=O)[O-])ccc12,303.15,0.0174,acetonitrile,CC#N,10.1021/acs.jced.8b01256
25148,NS(=O)(=O)c1ccccc1,303.15,0.07227,acetonitrile,CC#N,10.1021/acs.jced.9b00360
25159,O=Cc1cc([N+](=O)[O-])ccc1O,303.15,0.01258,acetonitrile,CC#N,10.1021/acs.jced.9b00232
25166,N[C@H](Cc1c[nH]c2ccccc12)C(=O)O,303.15,0.0001276,acetonitrile,CC#N,10.1021/acs.jced.9b00258
25176,N[C@@H](Cc1ccc(O)cc1)C(=O)O,303.15,7.714e-06,acetonitrile,CC#N,10.1021/acs.jced.9b00258
25186,NS(=O)(=O)c1cc2c(cc1Cl)NCNS2(=O)=O,303.15,0.003823,acetonitrile,CC#N,10.1021/acs.jced.9b00220
25196,N#CCc1ccccc1[N+](=O)[O-],303.15,0.1954,acetonitrile,CC#N,10.1021/acs.jced.9b00243
25209,Nc1cc([N+](=O)[O-])ccc1Cl,303.15,0.0671,acetonitrile,CC#N,10.1021/acs.jced.8b00931
25218,CCOC(=O)[C@@H](C)Oc1ccc(Oc2cnc3cc(Cl)ccc3n2)cc1,303.15,0.06073,acetonitrile,CC#N,10.1021/acs.jced.8b01181
25227,N#CCC(N)=O,303.15,0.04688,acetonitrile,CC#N,10.1021/acs.jced.8b01205
25236,Cc1cccc(C(=O)O)c1N,303.15,0.05401,acetonitrile,CC#N,10.1021/acs.jced.8b01226
25244,NC(=O)c1ccc([N+](=O)[O-])cc1,303.15,0.001549,acetonitrile,CC#N,10.1021/acs.jced.9b00065
25255,Nc1nc2c(ncn2COC(CO)CO)c(=O)[nH]1,303.15,1.994e-05,acetonitrile,CC#N,10.1021/acs.jced.8b01080
25265,Nc1cccc2c(N)cccc12,303.15,0.006948,acetonitrile,CC#N,10.1021/acs.jced.8b01214
25274,Nc1cccc2cccc(N)c12,303.15,0.1664,acetonitrile,CC#N,10.1021/acs.jced.8b01214
25281,C[C@@H](O)[C@H]1C(=O)N2C(C(=O)[O-])=C(SC3Cn4cnc[n+]4C3)[C@H](C)[C@H]12,303.15,5.821e-05,acetonitrile,CC#N,10.1021/acs.jced.8b01051
25291,O=C(O)Cc1c[nH]c2ccccc12,303.15,9.364e-06,acetonitrile,CC#N,10.1021/acs.jced.8b01265
25300,NC(=O)c1ccc(N)cc1,303.15,0.002982,acetonitrile,CC#N,10.1021/acs.jced.8b01144
25309,CC(=O)N(CC(O)CO)c1c(I)c(C(=O)NCC(O)CO)c(I)c(C(=O)NCC(O)CO)c1I,303.15,0.0001752,acetonitrile,CC#N,10.1021/acs.jced.8b01101
25320,CC(C)N1C(=O)N(c2ccccc2)CSC1=NC(C)(C)C,303.15,0.02845,acetonitrile,CC#N,10.1021/acs.jced.8b01099
25330,Cc1nc(C)c(C)nc1C,303.15,0.08882,acetonitrile,CC#N,10.1021/acs.jced.8b00888
25339,COc1c(N2CCNC(C)C2)c(F)cc2c(=O)c(C(=O)O)cn(C3CC3)c12,303.15,0.003222,acetonitrile,CC#N,10.1021/acs.jced.8b00902
25348,N#CCc1ccc([N+](=O)[O-])cc1,303.15,0.08987,acetonitrile,CC#N,10.1021/acs.jced.8b00811
25359,COc1ccc(Cl)cc1C(=O)NCCc1ccc(S(=O)(=O)NC(=O)NC2CCCCC2)cc1,303.15,0.00016293,acetonitrile,CC#N,10.1021/acs.jced.8b00717
25368,NNC(=O)c1ccncc1,303.15,0.00169,acetonitrile,CC#N,10.1021/acs.jced.8b00785
25377,CC[C@@H](C(N)=O)N1CCCC1=O,303.15,0.02032,acetonitrile,CC#N,10.1021/acs.jced.8b00720
25388,CCOC(=O)[C@H](CCc1ccccc1)N[C@@H](C)C(=O)O,303.15,0.001295,acetonitrile,CC#N,10.1021/acs.jced.8b00333
25398,CCOC(=O)[C@H](CCc1ccccc1)N[C@@H](C)C(=O)N1CCC[C@H]1C(=O)O.O=C(O)/C=C\C(=O)O,303.15,0.001534,acetonitrile,CC#N,10.1021/acs.jced.8b00333
25407,CS(=O)(=O)O.Cc1ccc(NC(=O)c2ccc(CN3CCN(C)CC3)cc2)cc1Nc1nccc(-c2cccnc2)n1,303.15,3.7e-05,acetonitrile,CC#N,10.1021/acs.jced.8b00551
25427,Cc1ccc(S(N)(=O)=O)cc1,303.15,0.118,acetonitrile,CC#N,10.1021/acs.jced.7b00714
25435,Cc1ccccc1S(N)(=O)=O,303.15,0.05335,acetonitrile,CC#N,10.1021/acs.jced.7b00714
25444,N#Cc1cccc([N+](=O)[O-])c1,303.15,0.1164,acetonitrile,CC#N,10.1021/acs.jced.7b00615
25453,CS(=O)(=O)c1ccc([C@@H](O)[C@@H](CO)NC(=O)C(Cl)Cl)cc1,303.15,0.0005023,acetonitrile,CC#N,10.1021/acs.jced.7b00542
25481,Nc1nc(Cl)cc(Cl)n1,303.15,0.003145,acetonitrile,CC#N,10.1021/acs.jced.8b00292
25495,On1nnc2ccccc21,303.15,0.005309,acetonitrile,CC#N,10.1021/acs.jced.7b00316
25517,COc1ccc(CN2CCNCC2)c(OC)c1OC.Cl,303.15,1.897e-05,acetonitrile,CC#N,10.1021/acs.jced.8b00235
25527,O=c1nc[nH]c2[nH]ncc12,303.15,0.0002386,acetonitrile,CC#N,10.1021/acs.jced.8b00430