,SMILES,"T,K",Solubility,Solvent,SMILES_Solvent,Source
35606,CCO.C[C@H]1c2cccc(O)c2C(O)=C2C(=O)[C@]3(O)C(O)=C(C(N)=O)C(=O)[C@@H](N(C)C)[C@@H]3[C@@H](O)[C@@H]21.C[C@H]1c2cccc(O)c2C(O)=C2C(=O)[C@]3(O)C(O)=C(C(N)=O)C(=O)[C@@H](N(C)C)[C@@H]3[C@@H](O)[C@@H]21.Cl.Cl.O,303.15,0.003677,THF,C1CCOC1,10.1021/acs.jced.0c00097
35616,Cc1c(Br)cccc1C(=O)O,303.15,0.23584,THF,C1CCOC1,10.1021/acs.jced.9b01007
35651,CN1CCN(c2c(F)cc3c(=O)c(C(=O)O)cn4c3c2OCN4C)CC1,303.15,0.0006804,THF,C1CCOC1,10.1021/acs.jced.9b00490
35662,O=[N+]([O-])c1ncccc1O,303.15,0.3959,THF,C1CCOC1,10.1021/acs.jced.9b00564
35690,C[C@]12CCC3=C4CCC(=O)C=C4CC[C@H]3[C@@H]1CC[C@@]2(O)CC#N,303.15,0.0172,THF,C1CCOC1,10.1021/acs.jced.9b00696
35696,c1cc(-n2c3ccccc3c3ccccc32)cc(-n2c3ccccc3c3ccccc32)c1,303.15,0.0598,THF,C1CCOC1,10.1021/acs.jced.9b00432
35714,Cc1n[nH]c2cc([N+](=O)[O-])ccc12,303.15,0.0845,THF,C1CCOC1,10.1021/acs.jced.8b01256
35725,CN(C)/C=C/C(=O)c1cccnc1,303.15,0.0279,THF,C1CCOC1,10.1021/acs.jced.9b00047
35737,N#CCC(N)=O,303.15,0.02085,THF,C1CCOC1,10.1021/acs.jced.8b01205
35747,CC#C[C@]1(O)CC[C@H]2[C@@H]3CCC4=CC(=O)CCC4=C3[C@@H](c3ccc(N(C)C)cc3)C[C@@]21C,303.15,0.000123,THF,C1CCOC1,10.1021/acs.jced.8b01062
35756,CS(=O)(=O)O.Cc1ccc(NC(=O)c2ccc(CN3CCN(C)CC3)cc2)cc1Nc1nccc(-c2cccnc2)n1,303.15,0.000115,THF,C1CCOC1,10.1021/acs.jced.8b00551
35765,CC1(C)COP(=O)(C(Nc2ccccc2)c2ccccc2)OC1,303.15,0.01173,THF,C1CCOC1,10.1021/acs.jced.7b00585
35795,Cc1ccc(NC(=O)/C(=C/Cl)Sc2ccccc2)cc1,303.15,0.1536,THF,C1CCOC1,10.1021/acs.jced.7b01011
35815,COC(=O)c1c(C)cc(O)c(C)c1O,303.15,0.2885,THF,C1CCOC1,10.1021/acs.jced.6b00646
35825,O=C1NC23NC(=O)NC2(N1)C(=O)NC3=O,303.15,0.0019188,THF,C1CCOC1,10.1021/acs.jced.6b00349
35831,O=C1OC[C@H]2[C@@H]1N(Cc1ccccc1)C(=O)N2Cc1ccccc1,303.15,0.0971,THF,C1CCOC1,10.1021/acs.jced.5b00857
35851,O=[N+]([O-])c1cccc(S(=O)(=O)[O-])c1.[Na+],303.15,0.0007455,THF,C1CCOC1,10.1021/acs.jced.5b00783
35860,O=[N+]([O-])c1ccc(S(=O)(=O)[O-])cc1.[Na+],303.15,0.0001266,THF,C1CCOC1,10.1021/acs.jced.5b00783
35867,O=P(NCc1ccccc1)(Oc1ccccc1)Oc1ccccc1,303.15,0.13202,THF,C1CCOC1,10.1021/acs.jced.5b00007
35875,Nc1cc(Cl)nnc1Cl,303.15,0.055589,THF,C1CCOC1,10.1021/je500286x
35890,O=C1O[B-]2(OC1=O)OC(=O)C(=O)O2.[Li+],303.15,0.03362,THF,C1CCOC1,10.1021/je500068b
35895,OC(Cn1cncn1)(Cn1cncn1)c1ccc(F)cc1F,303.15,0.0155,THF,C1CCOC1,10.1021/je4010257
35902,O=P(Oc1ccccc1)(Oc1ccccc1)N1CCN(P(=O)(Oc2ccccc2)Oc2ccccc2)CC1,303.15,0.0018339,THF,C1CCOC1,10.1021/je400412z
35924,ClP1(Cl)=NP(Cl)(Cl)=NP(Cl)(Cl)=N1,303.15,0.215,THF,C1CCOC1,10.1021/je1009812
35989,Nc1ccc(O)c(C(=O)O)c1,303.15,0.835734,THF,C1CCOC1,10.1021/je900646u
36010,O=C(O)c1ccc(C(=O)O)cc1,303.15,0.0009952,THF,C1CCOC1,10.1021/je9001976
36015,O=C(O)c1ccccc1C(=O)O,303.15,0.07543,THF,C1CCOC1,10.1021/je9001976
36020,O=C(O)c1cccc(C(=O)O)c1,303.15,0.01541,THF,C1CCOC1,10.1021/je9001976
36084,CCCCC1=NC2(CCCC2)C(=O)N1Cc1ccc(-c2ccccc2-c2nn[nH]n2)cc1,303.15,0.003316,THF,C1CCOC1,10.1021/je700296x
36093,CCOc1ccc(NC(C)=O)cc1,303.15,0.039546,THF,C1CCOC1,10.1021/je700209v
36127,CN1CCN(C2=Nc3cc(Cl)ccc3Nc3ccccc32)CC1,303.15,0.08662,THF,C1CCOC1,10.1016/j.jct.2021.106451
36137,COCCOC(=O)C1=C(C)NC(C)=C(C(=O)OC(C)C)C1c1cccc([N+](=O)[O-])c1,303.15,0.02588,THF,C1CCOC1,10.1016/j.jct.2020.106259
36146,Cc1c([N+](=O)[O-])c(C)c([N+](=O)[O-])c(C(C)(C)C)c1[N+](=O)[O-],303.15,0.1393,THF,C1CCOC1,10.1016/j.jct.2019.03.029
36152,NC(=O)N1c2ccccc2CC(=O)c2ccccc21,303.15,0.00266,THF,C1CCOC1,10.1016/j.jct.2016.09.011
36159,COc1ccc2nc(S(=O)Cc3ncc(C)c(OC)c3C)[nH]c2c1,303.15,0.01963,THF,C1CCOC1,10.1016/j.jct.2015.11.005
36180,O=C1CCC(=O)O1,303.15,0.104,THF,C1CCOC1,10.1016/j.jct.2016.09.025
36190,Nc1ccc(N2CCOCC2=O)cc1,303.15,0.00542,THF,C1CCOC1,10.1016/j.jct.2016.01.022
36202,Clc1ncnc2[nH]ccc12,303.15,0.06987,THF,C1CCOC1,10.1016/j.jct.2021.106493
36221,CC1(C)CO[P+]([O-])(Oc2c(Br)cc(Br)cc2Br)OC1,303.15,0.03027,THF,C1CCOC1,10.1016/j.fluid.2013.09.023
36231,COC(=O)C1CC(=O)C(C(=O)OC)CC1=O,303.15,0.01395,THF,C1CCOC1,10.1016/j.fluid.2013.06.037
36242,COC(=O)[C@@H](N)CS.Cl,303.15,0.00164,2-butanone,CCC(C)=O,10.1021/acs.jced.0c00795
36255,NS(=O)(=O)Cc1noc2ccccc12,303.15,0.0319,2-butanone,CCC(C)=O,10.1021/acs.jced.0c00249
36264,CC(=O)Oc1ccccc1C(=O)Nc1ncc([N+](=O)[O-])s1,303.15,0.01578,2-butanone,CCC(C)=O,10.1021/acs.jced.0c00254
36272,CC(=O)Nc1ccc(OC(=O)c2ccccc2OC(C)=O)cc1,303.15,0.003605,2-butanone,CCC(C)=O,10.1021/acs.jced.0c00301
36282,CCCSc1nc(N[C@@H]2C[C@H]2c2ccc(F)c(F)c2)c2nnn([C@@H]3C[C@H](OCCO)[C@@H](O)[C@H]3O)c2n1,303.15,0.05844,2-butanone,CCC(C)=O,10.1021/acs.jced.0c00127
36291,O=C(Nc1ccccc1)c1ccccc1,303.15,0.0343,2-butanone,CCC(C)=O,10.1021/acs.jced.0c00167
36305,CSCCC(NC(C)=O)C(=O)O,303.15,0.02073,2-butanone,CCC(C)=O,10.1021/acs.jced.1c00064
36312,Cn1c(=O)c2c(ncn2CC2OCCO2)n(C)c1=O,303.15,0.0130479,2-butanone,CCC(C)=O,10.1021/acs.jced.0c01088
36321,O=C(O)[C@@H]1C[C@@H](O)CN1,303.15,0.00028,2-butanone,CCC(C)=O,10.1021/acs.jced.0c00794
36331,CCOc1ccccc1C(N)=O,303.15,0.021829,2-butanone,CCC(C)=O,10.1021/acs.jced.0c01081
36341,c1ccc2[nH]c(-c3cscn3)nc2c1,303.15,0.001863,2-butanone,CCC(C)=O,10.1021/acs.jced.0c00724
36350,Nc1nc(=O)[nH]cc1F,303.15,0.0001211,2-butanone,CCC(C)=O,10.1021/acs.jced.1c00206
36361,O=C1CCc2cc(OCCCCc3nnnn3C3CCCCC3)ccc2N1,303.15,0.006773,2-butanone,CCC(C)=O,10.1021/acs.jced.1c00302
36366,CCOC(=O)[C@@H]1CSCN1.Cl,303.15,0.00018,2-butanone,CCC(C)=O,10.1021/acs.jced.1c00079
36371,CC(C)(C)OC(=O)N1CCC[C@H]1C(=O)O,303.15,0.068696,2-butanone,CCC(C)=O,10.1021/acs.jced.1c00201
36376,O=C(N[C@H](C(=O)O)c1ccccc1)OCc1ccccc1,303.15,0.076209,2-butanone,CCC(C)=O,10.1021/acs.jced.1c00240
36392,O=C1N=c2ccccc2=N1,303.15,0.0019322,2-butanone,CCC(C)=O,10.1021/acs.jced.0c00165
36403,O=c1cc(CBr)c2ccccc2[nH]1,303.15,0.000634,2-butanone,CCC(C)=O,10.1021/acs.jced.0c00303
36408,CCOC(=O)[C@@H](N)CCc1ccccc1.Cl,303.15,0.0004,2-butanone,CCC(C)=O,10.1021/acs.jced.1c00485
36415,COc1cc2c(cc1OC)C(=O)CC2,303.15,0.105244,2-butanone,CCC(C)=O,10.1021/acs.jced.1c00040
36422,CC(=O)N1CCC[C@H]1C(=O)O,303.15,0.02373,2-butanone,CCC(C)=O,10.1021/acs.jced.1c00032
36427,NC1CCSC1=O,303.15,0.000307,2-butanone,CCC(C)=O,10.1021/acs.jced.0c01089
36435,CNCCC(Oc1ccc(C(F)(F)F)cc1)c1ccccc1.Cl,303.15,0.003367,2-butanone,CCC(C)=O,10.1021/acs.jced.0c00513
36442,O=c1[nH]c2ccccc2c(=O)o1,303.15,0.009639,2-butanone,CCC(C)=O,10.1021/acs.jced.9b01164
36451,Oc1c(Br)cc(Br)c2cccnc12,303.15,0.001224,2-butanone,CCC(C)=O,10.1021/acs.jced.9b01190
36462,OC[C@H]1O[C@@H](Oc2ccc(O)cc2)[C@H](O)[C@@H](O)[C@@H]1O,303.15,0.0002968,2-butanone,CCC(C)=O,10.1021/acs.jced.9b00703
36471,COC(=O)c1ccc(C(=O)OC)cc1,303.15,0.0228544,2-butanone,CCC(C)=O,10.1021/acs.jced.9b00658
36502,Cc1cnc(C(=O)O)cn1,303.15,1.39e-05,2-butanone,CCC(C)=O,10.1021/acs.jced.9b00406
36510,Sc1nc2ccccc2[nH]1,303.15,0.01413,2-butanone,CCC(C)=O,10.1021/acs.jced.9b00190
36519,N#CCc1ccccc1[N+](=O)[O-],303.15,0.2351,2-butanone,CCC(C)=O,10.1021/acs.jced.9b00243
36532,Nc1cc([N+](=O)[O-])ccc1Cl,303.15,0.1529,2-butanone,CCC(C)=O,10.1021/acs.jced.8b00931
36540,Cc1cccc(C(=O)O)c1N,303.15,0.1041,2-butanone,CCC(C)=O,10.1021/acs.jced.8b01226
36548,CC(=O)N(CC(O)CO)c1c(I)c(C(=O)NCC(O)CO)c(I)c(C(=O)NCC(O)CO)c1I,303.15,0.0003011,2-butanone,CCC(C)=O,10.1021/acs.jced.8b01101
36557,COC(=O)Nc1nc2ccc(C(=O)c3ccc(F)cc3)cc2[nH]1,303.15,0.0006819,2-butanone,CCC(C)=O,10.1021/acs.jced.8b01126
36569,Nc1nc(Cl)c2[nH]cnc2n1,303.15,0.0004079,2-butanone,CCC(C)=O,10.1021/acs.jced.8b01014
36582,COc1c(N2CCNC(C)C2)c(F)cc2c(=O)c(C(=O)O)cn(C3CC3)c12,303.15,0.004048,2-butanone,CCC(C)=O,10.1021/acs.jced.8b00902
36590,CCOC(=O)C1=C[C@]2(CC)CCCN3CCc4c(n1c1ccccc41)[C@@H]32,303.15,0.0117504,2-butanone,CCC(C)=O,10.1021/acs.jced.8b00663
36600,N#CCc1ccc([N+](=O)[O-])cc1,303.15,0.09533,2-butanone,CCC(C)=O,10.1021/acs.jced.8b00811
36612,CS(=O)(=O)c1ccc([C@@H](O)[C@@H](CO)NC(=O)C(Cl)Cl)cc1,303.15,0.0007043,2-butanone,CCC(C)=O,10.1021/acs.jced.7b00542
36626,On1nnc2ccccc21,303.15,0.03225,2-butanone,CCC(C)=O,10.1021/acs.jced.7b00316
36636,COc1ccc(CN2CCNCC2)c(OC)c1OC.Cl,303.15,9.047e-06,2-butanone,CCC(C)=O,10.1021/acs.jced.8b00235
36646,O=c1nc[nH]c2[nH]ncc12,303.15,0.001956,2-butanone,CCC(C)=O,10.1021/acs.jced.8b00430
36659,O=C(O)Cc1ccccc1Cl,303.15,0.4622,2-butanone,CCC(C)=O,10.1021/acs.jced.8b00139
36668,Cc1ccc(NC(=O)/C(=C/Cl)Sc2ccccc2)cc1,303.15,0.0772,2-butanone,CCC(C)=O,10.1021/acs.jced.7b01011
36681,O=C1NC(=O)c2cc([N+](=O)[O-])ccc21,303.15,0.02794,2-butanone,CCC(C)=O,10.1021/acs.jced.6b00230
36702,COc1ccc(C(=O)O)cc1OC,303.15,0.014,2-butanone,CCC(C)=O,10.1021/je400029t
36712,CCOc1nc2cccc(C(=O)OC(C)OC(=O)OC3CCCCC3)c2n1Cc1ccc(-c2ccccc2-c2nnn[nH]2)cc1,303.15,0.0118,2-butanone,CCC(C)=O,10.1021/je101020m
36801,Cc1ccc[n+](CCCC[n+]2cccc(C)c2)c1.F[P-](F)(F)(F)(F)F.F[P-](F)(F)(F)(F)F,303.15,0.00439,2-butanone,CCC(C)=O,10.1021/je9010954
36839,Cn1cc[n+](CCC[n+]2ccn(C)c2)c1.F[P-](F)(F)(F)(F)F.F[P-](F)(F)(F)(F)F,303.15,0.004576,2-butanone,CCC(C)=O,10.1021/je9006585
36888,O=C(O)COc1ccc(Cl)cc1Cl,303.15,0.1437,2-butanone,CCC(C)=O,10.1016/j.jct.2021.106589
36898,CN1CCN(C2=Nc3cc(Cl)ccc3Nc3ccccc32)CC1,303.15,0.03741,2-butanone,CCC(C)=O,10.1016/j.jct.2021.106451
36911,c1ccc(-c2nnn[nH]2)cc1,303.15,0.02199,2-butanone,CCC(C)=O,10.1016/j.jct.2017.04.019
36930,S=c1[nH]c2ccccc2s1,303.15,0.1064,2-butanone,CCC(C)=O,10.1016/j.jct.2017.05.013
36947,Cc1ccc(N)c([N+](=O)[O-])c1,303.15,0.213,2-butanone,CCC(C)=O,10.1016/j.jct.2017.02.008
36962,CC(C)c1ncc[nH]1,303.15,0.1767,2-butanone,CCC(C)=O,10.1016/j.jct.2016.12.028
36975,Clc1ccc2c(c1)Nc1ccccc1S2,303.15,0.05459,2-butanone,CCC(C)=O,10.1016/j.jct.2016.11.029
36990,Nc1ccc([N+](=O)[O-])cc1N,303.15,0.02675,2-butanone,CCC(C)=O,10.1016/j.jct.2016.11.014
37007,CC(C)(C)C(O)(CCc1ccc(Cl)cc1)Cn1cncn1,303.15,0.08694,2-butanone,CCC(C)=O,10.1016/j.jct.2016.11.032
37022,Cc1cc([N+](=O)[O-])ccc1N,303.15,0.1486,2-butanone,CCC(C)=O,10.1016/j.jct.2016.10.037
37035,Cn1cnc([N+](=O)[O-])c1Cl,303.15,0.03077,2-butanone,CCC(C)=O,10.1016/j.jct.2016.10.006
37048,O=Cc1ccc([N+](=O)[O-])cc1,303.15,0.1223,2-butanone,CCC(C)=O,10.1016/j.jct.2016.09.012
37057,O=C(NC[C@H]1CN(c2ccc(N3CCOCC3=O)cc2)C(=O)O1)c1ccc(Cl)s1,303.15,0.0001535,2-butanone,CCC(C)=O,10.1016/j.jct.2016.09.036
37069,Nc1nnc[nH]1,303.15,0.004382,2-butanone,CCC(C)=O,10.1016/j.jct.2016.09.033
37082,O=Cc1ccc(C=O)cc1,303.15,0.09977,2-butanone,CCC(C)=O,10.1016/j.jct.2016.07.013
37091,C=CC(=O)N1CCC[C@@H](n2nc(-c3ccc(Oc4ccccc4)cc3)c3c(N)ncnc32)C1,303.15,0.01136,2-butanone,CCC(C)=O,10.1016/j.jct.2016.08.034
37106,O=S(=O)(c1ccc(O)cc1)c1ccccc1O,303.15,0.1224,2-butanone,CCC(C)=O,10.1016/j.jct.2016.07.001
37115,Cn1cc([N+](=O)[O-])cn1,303.15,0.016169,2-butanone,CCC(C)=O,10.1016/j.fluid.2018.05.023
37131,COC(=O)[C@@H](N)CS.Cl,303.15,0.00416,sec-butanol,CCC(C)O,10.1021/acs.jced.0c00795
37142,CC1(C)NC(=O)NC1=O,303.15,0.0655,sec-butanol,CCC(C)O,10.1021/acs.jced.9b01020
37152,Nc1ccc(S(N)(=O)=O)cc1,303.15,0.001317,sec-butanol,CCC(C)O,10.1021/acs.jced.9b00411
37169,O=C(O)COc1ccc(Cl)cc1,303.15,0.05055,sec-butanol,CCC(C)O,10.1021/acs.jced.1c00153
37177,Cc1c(N)cccc1C(=O)O,303.15,0.003881,sec-butanol,CCC(C)O,10.1021/acs.jced.1c00109
37207,Cc1ccc([N+](=O)[O-])c(C(=O)O)c1,303.15,0.2528,sec-butanol,CCC(C)O,10.1021/acs.jced.1c00082
37215,CSCCC(NC(C)=O)C(=O)O,303.15,0.05683,sec-butanol,CCC(C)O,10.1021/acs.jced.1c00064
37231,O=C(O)[C@@H]1C[C@@H](O)CN1,303.15,0.000166,sec-butanol,CCC(C)O,10.1021/acs.jced.0c00794
37242,O=Cc1cc(C=O)cc(C=O)c1,303.15,0.001009,sec-butanol,CCC(C)O,10.1021/acs.jced.0c00776
37250,OCC(O)COc1ccc(Cl)cc1,303.15,0.09599,sec-butanol,CCC(C)O,10.1021/acs.jced.0c00900
37259,CCOc1ccccc1C(N)=O,303.15,0.015304,sec-butanol,CCC(C)O,10.1021/acs.jced.0c01081
37277,CC1=NN(c2ccccc2)C(=O)C1,303.15,0.029629,sec-butanol,CCC(C)O,10.1021/acs.jced.0c00290
37282,Cl.N=C(N=C(N)N)N1CCOCC1,303.15,0.000445,sec-butanol,CCC(C)O,10.1021/acs.jced.0c00015
37287,CCOC(=O)[C@@H]1CSCN1.Cl,303.15,0.001824,sec-butanol,CCC(C)O,10.1021/acs.jced.1c00079
37292,CC(C)(C)OC(=O)N1CCC[C@H]1C(=O)O,303.15,0.156581,sec-butanol,CCC(C)O,10.1021/acs.jced.1c00201
37308,O=C1N=c2ccccc2=N1,303.15,0.0055365,sec-butanol,CCC(C)O,10.1021/acs.jced.0c00165
37319,CC(C)(c1ccc(O)cc1)c1ccc(O)cc1,303.15,0.08297,sec-butanol,CCC(C)O,10.1021/acs.jced.0c00166
37324,OC[C@H]1O[C@@H](Oc2ccc(O)cc2)[C@H](O)[C@@H](O)[C@@H]1O,303.15,0.000969,sec-butanol,CCC(C)O,10.1021/acs.jced.0c00353
37329,CCOC(=O)[C@@H](N)CCc1ccccc1.Cl,303.15,0.00846,sec-butanol,CCC(C)O,10.1021/acs.jced.1c00485
37335,CC(CCc1ccccc1)NCC(O)c1ccc(O)c(C(N)=O)c1.Cl,303.15,0.000336,sec-butanol,CCC(C)O,10.1021/acs.jced.1c00432
37345,COc1cc2c(cc1OC)C(=O)CC2,303.15,0.035695,sec-butanol,CCC(C)O,10.1021/acs.jced.1c00040
37354,CC(=O)NCC(=O)O,303.15,0.003686,sec-butanol,CCC(C)O,10.1021/acs.jced.0c00983
37363,CC(=O)N1CCC[C@H]1C(=O)O,303.15,0.09146,sec-butanol,CCC(C)O,10.1021/acs.jced.1c00032
37371,CNCCC(Oc1ccc(C(F)(F)F)cc1)c1ccccc1.Cl,303.15,0.005561,sec-butanol,CCC(C)O,10.1021/acs.jced.0c00513
37377,N[C@@H](CS)C(=O)O,303.15,5.6e-05,sec-butanol,CCC(C)O,10.1021/acs.jced.0c00031
37382,O=C[C@H](O)[C@H](O)[C@H](O)CO,303.15,0.0089355,sec-butanol,CCC(C)O,10.1021/acs.jced.0c00009
37389,CC(=O)N[C@@H](CC(C)C)C(=O)O,303.15,0.03247,sec-butanol,CCC(C)O,10.1021/acs.jced.9b01151
37398,CN(C)Cc1c[nH]c2ccccc12,303.15,0.0014466,sec-butanol,CCC(C)O,10.1021/acs.jced.9b01063
37405,C[C@H](N)C(=O)O,303.15,0.000407,sec-butanol,CCC(C)O,10.1021/acs.jced.9b00743
37416,Cc1c(C(=O)O)cc([N+](=O)[O-])cc1[N+](=O)[O-],303.15,0.01866,sec-butanol,CCC(C)O,10.1021/acs.jced.9b00497
37436,COc1ccc(Cl)cc1C(=O)NCCc1ccc(S(=O)(=O)NC(=O)NC2CCCCC2)cc1,303.15,0.00018433,sec-butanol,CCC(C)O,10.1021/acs.jced.8b00717
37445,COc1cc(C(=O)O)cc(OC)c1O,303.15,0.00432,sec-butanol,CCC(C)O,10.1021/acs.jced.7b00333
37462,Cc1ccc(S(=O)(=O)O)cc1.Cc1ccc(S(=O)(=O)O)cc1.OCCN(CCO)c1nc(N2CCCCC2)c2nc(N(CCO)CCO)nc(N3CCCCC3)c2n1,303.15,0.000231,sec-butanol,CCC(C)O,10.1021/acs.jced.7b00825
37474,CN1C(C(=O)Nc2ccccn2)=C(O)c2sccc2S1(=O)=O,303.15,8.79e-05,sec-butanol,CCC(C)O,10.1021/acs.jced.5b00382
37484,COC(=O)[C@H](c1ccccc1Cl)N1CCc2sccc2C1.O=S(=O)(O)O,303.15,0.019111,sec-butanol,CCC(C)O,10.1021/acs.jced.5b00306
37497,C=CC1=C(C(=O)O)N2C(=O)[C@@H](NC(=O)/C(=N\OCC(=O)O)c3csc(N)n3)[C@H]2SC1.O.O.O,303.15,0.001732,sec-butanol,CCC(C)O,10.1021/je5000605
37535,N[C@@H](Cc1ccc([N+](=O)[O-])cc1[N+](=O)[O-])C(=O)O,303.15,7.79e-07,sec-butanol,CCC(C)O,10.1021/je100352r
37570,Nc1ccc(S(N)(=O)=O)cc1,303.15,0.0009815,sec-butanol,CCC(C)O,10.1021/je900038m
37579,O=C(Oc1ccccc1)c1ccccc1O,303.15,0.3976,sec-butanol,CCC(C)O,10.1021/je800668j
37631,S=C(Nc1ccccc1)Nc1ccccc1,303.15,0.002683,sec-butanol,CCC(C)O,10.1016/j.jct.2021.106605
37641,O=C(O)COc1ccc(Cl)cc1Cl,303.15,0.117,sec-butanol,CCC(C)O,10.1016/j.jct.2021.106589
37650,CC(=O)Nc1ccc(C(=O)O)cc1,303.15,0.009361,sec-butanol,CCC(C)O,10.1016/j.jct.2021.106478
37660,CN1CCN(C2=Nc3cc(Cl)ccc3Nc3ccccc32)CC1,303.15,0.007441,sec-butanol,CCC(C)O,10.1016/j.jct.2021.106451
37670,COCCOC(=O)C1=C(C)NC(C)=C(C(=O)OC(C)C)C1c1cccc([N+](=O)[O-])c1,303.15,0.01667,sec-butanol,CCC(C)O,10.1016/j.jct.2020.106259
37678,Cl.c1ccc([C@H]2CN3CCSC3=N2)cc1,303.15,0.001234,sec-butanol,CCC(C)O,10.1016/j.jct.2019.105882
37688,O=C1c2cccc(O)c2C(=O)c2c(O)cc(CO)cc21,303.15,5.44e-05,sec-butanol,CCC(C)O,10.1016/j.jct.2016.02.020
37695,C[C@@H]1O[C@@H](OC[C@H]2O[C@@H](Oc3c(-c4ccc(OCCO)c(OCCO)c4)oc4cc(OCCO)cc(O)c4c3=O)[C@H](O)[C@@H](O)[C@@H]2O)[C@H](O)[C@H](O)[C@H]1O,303.15,0.000194,sec-butanol,CCC(C)O,10.1016/j.jct.2016.09.015
37717,COc1c(O)cc2c(c1O)[C@@H]1O[C@H](CO)[C@@H](O)[C@H](O)[C@H]1OC2=O,303.15,0.00041,sec-butanol,CCC(C)O,10.1016/j.jct.2016.05.003
37725,Nc1nc(N)nc(NC2CC2)n1,303.15,0.000686,sec-butanol,CCC(C)O,10.1016/j.fluid.2018.07.024
37734,Cn1cc([N+](=O)[O-])cn1,303.15,0.002131,sec-butanol,CCC(C)O,10.1016/j.fluid.2018.05.023
37740,CC1(C)CCC2=C(O1)c1ccccc1C(=O)C2=O,303.15,0.00671,sec-butanol,CCC(C)O,10.1016/j.fluid.2018.05.005
37757,COC(=O)[C@@H](N)CS.Cl,303.15,0.00147,"1,4-dioxane",C1COCCO1,10.1021/acs.jced.0c00795
37767,NS(=O)(=O)Cc1noc2ccccc12,303.15,0.04163,"1,4-dioxane",C1COCCO1,10.1021/acs.jced.0c00249
37773,CC(=O)Oc1ccccc1C(=O)Nc1ncc([N+](=O)[O-])s1,303.15,0.02066,"1,4-dioxane",C1COCCO1,10.1021/acs.jced.0c00254
37779,O=Cc1cc(Br)c(O)c(Br)c1,303.15,0.01828,"1,4-dioxane",C1COCCO1,10.1021/acs.jced.0c00376
37786,CC(=O)Nc1ccc(OC(=O)c2ccccc2OC(C)=O)cc1,303.15,0.0025,"1,4-dioxane",C1COCCO1,10.1021/acs.jced.0c00301
37793,O=C(O)COc1ccc(Cl)cc1,303.15,0.1464,"1,4-dioxane",C1COCCO1,10.1021/acs.jced.1c00153
37801,CC(=O)Nc1ccccc1[N+](=O)[O-],303.15,0.1856,"1,4-dioxane",C1COCCO1,10.1021/acs.jced.1c00037
37808,CSCCC(NC(C)=O)C(=O)O,303.15,0.07299,"1,4-dioxane",C1COCCO1,10.1021/acs.jced.1c00064
37815,Nc1cccc(S(=O)(=O)c2cccc(N)c2)c1,303.15,0.008296,"1,4-dioxane",C1COCCO1,10.1021/acs.jced.1c00062
37824,O=C(O)[C@@H]1C[C@@H](O)CN1,303.15,0.001078,"1,4-dioxane",C1COCCO1,10.1021/acs.jced.0c00794
37834,O=Cc1cc(C=O)cc(C=O)c1,303.15,0.024927,"1,4-dioxane",C1COCCO1,10.1021/acs.jced.0c00776
37842,OCC(O)COc1ccc(Cl)cc1,303.15,0.2173,"1,4-dioxane",C1COCCO1,10.1021/acs.jced.0c00900
37851,COc1cc2nc(Cl)nc(N)c2cc1OC,303.15,0.0001831,"1,4-dioxane",C1COCCO1,10.1021/acs.jced.0c00506
37856,O=C(O)[C@@H]1CSCN1,303.15,0.000477,"1,4-dioxane",C1COCCO1,10.1021/acs.jced.0c00996
37862,CCOc1ccccc1C(N)=O,303.15,0.022113,"1,4-dioxane",C1COCCO1,10.1021/acs.jced.0c01081
37871,Nc1ccc(Cc2ccc(N)c(Cl)c2)cc1Cl,303.15,0.258,"1,4-dioxane",C1COCCO1,10.1021/acs.jced.0c00655
37879,CC1=NN(c2ccccc2)C(=O)C1,303.15,0.048338,"1,4-dioxane",C1COCCO1,10.1021/acs.jced.0c00290
37886,Nc1nc(=O)[nH]cc1F,303.15,2.82e-05,"1,4-dioxane",C1COCCO1,10.1021/acs.jced.1c00206
37893,O=C(O)CNCc1ccccc1,303.15,8.4e-05,"1,4-dioxane",C1COCCO1,10.1021/acs.jced.1c00050
37899,O=C(O)c1cccc([N+](=O)[O-])c1O,303.15,0.04357,"1,4-dioxane",C1COCCO1,10.1021/acs.jced.1c00259
37907,O=C1CCc2cc(OCCCCc3nnnn3C3CCCCC3)ccc2N1,303.15,0.00819,"1,4-dioxane",C1COCCO1,10.1021/acs.jced.1c00302
37912,CCOC(=O)[C@@H]1CSCN1.Cl,303.15,0.000872,"1,4-dioxane",C1COCCO1,10.1021/acs.jced.1c00079
37917,O=C(O)c1cccc(C(=O)O)n1,303.15,0.002503,"1,4-dioxane",C1COCCO1,10.1021/acs.jced.1c00200
37927,Nc1cccc(C(=O)O)c1,303.15,0.04196,"1,4-dioxane",C1COCCO1,10.1021/acs.jced.1c00247
37935,O=C(O)c1cc([N+](=O)[O-])cc([N+](=O)[O-])c1O,303.15,0.06217,"1,4-dioxane",C1COCCO1,10.1021/acs.jced.0c00122
37943,O=C1N=c2ccccc2=N1,303.15,0.0036379,"1,4-dioxane",C1COCCO1,10.1021/acs.jced.0c00165
37952,CC(C)(c1ccc(O)cc1)c1ccc(O)cc1,303.15,0.2636,"1,4-dioxane",C1COCCO1,10.1021/acs.jced.0c00166
37958,O=c1cc(CBr)c2ccccc2[nH]1,303.15,0.00092,"1,4-dioxane",C1COCCO1,10.1021/acs.jced.0c00303
37963,OCc1ccccc1O[C@@H]1OC(CO)[C@@H](O)[C@@H](O)C1O,303.15,0.00097098,"1,4-dioxane",C1COCCO1,10.1021/acs.jced.0c00332
37968,OC[C@H]1O[C@@H](Oc2ccc(O)cc2)[C@H](O)[C@@H](O)[C@@H]1O,303.15,0.005788,"1,4-dioxane",C1COCCO1,10.1021/acs.jced.0c00353
37973,CCOC(=O)[C@@H](N)CCc1ccccc1.Cl,303.15,0.00381,"1,4-dioxane",C1COCCO1,10.1021/acs.jced.1c00485
37979,CC(=O)NCC(=O)O,303.15,0.001581,"1,4-dioxane",C1COCCO1,10.1021/acs.jced.0c00983
37988,CC(=O)N1CCC[C@H]1C(=O)O,303.15,0.04158,"1,4-dioxane",C1COCCO1,10.1021/acs.jced.1c00032
37992,NC1CCSC1=O,303.15,0.000691,"1,4-dioxane",C1COCCO1,10.1021/acs.jced.0c01089
37999,C=CC(=O)NC(C)(C)CS(=O)(=O)O,303.15,0.0004255,"1,4-dioxane",C1COCCO1,10.1021/acs.jced.0c00578
38008,O=C(O)Cc1ccccc1[N+](=O)[O-],303.15,0.07323,"1,4-dioxane",C1COCCO1,10.1021/acs.jced.0c00543
38018,O=[N+]([O-])N(CCO)CCO.O=[N+]([O-])O.O=[N+]([O-])O,303.15,0.42489,"1,4-dioxane",C1COCCO1,10.1021/acs.jced.0c00211
38022,N[C@@H](CS)C(=O)O,303.15,0.00016,"1,4-dioxane",C1COCCO1,10.1021/acs.jced.0c00031
38029,Oc1ccc(OCc2ccccc2)cc1,303.15,0.2582,"1,4-dioxane",C1COCCO1,10.1021/acs.jced.9b00817
38033,O=C([O-])/C=C/C(=O)O.[Na+],303.15,0.0001652,"1,4-dioxane",C1COCCO1,10.1021/acs.jced.9b01203
38039,O=c1[nH]c2ccccc2c(=O)o1,303.15,0.01188,"1,4-dioxane",C1COCCO1,10.1021/acs.jced.9b01164
38047,Oc1c(Br)cc(Br)c2cccnc12,303.15,0.006392,"1,4-dioxane",C1COCCO1,10.1021/acs.jced.9b01190
38057,CN(C)Cc1c[nH]c2ccccc12,303.15,0.06234,"1,4-dioxane",C1COCCO1,10.1021/acs.jced.9b00911
38063,COc1cc([N+](=O)[O-])ccc1N,303.15,0.06519,"1,4-dioxane",C1COCCO1,10.1021/acs.jced.9b00991
38071,O=Cc1ccc(O)c(Br)c1,303.15,0.02554,"1,4-dioxane",C1COCCO1,10.1021/acs.jced.9b01004