,SMILES,"T,K",Solubility,Solvent,SMILES_Solvent,Source
40829,O=S(=O)([O-])c1ccc(Nc2nc(Nc3ccc(/C=C/c4ccc(Nc5nc(Nc6ccc(S(=O)(=O)[O-])cc6)nc(N6CCOCC6)n5)cc4S(=O)(=O)[O-])c(S(=O)(=O)[O-])c3)nc(N3CCOCC3)n2)cc1.[Na+].[Na+].[Na+].[Na+],303.15,0.0017905,water,O,10.1021/je8002145
40835,CN(C)CCn1[nH]nnc1=S,303.15,0.006365,water,O,10.1021/je8003244
40853,CC(O)(P(=O)(O)O)P(=O)(O)O.O,303.15,0.18981,water,O,10.1021/je8002332
40861,O=C(O)c1cc(O)c(O)c(O)c1,303.15,0.0012835,water,O,10.1021/je800205e
40867,COc1cc(C(=O)O)cc(OC)c1O,303.15,0.00064596,water,O,10.1021/je800205e
40873,O=C(O)c1ccc(O)c(O)c1,303.15,0.0022861,water,O,10.1021/je800205e
40879,COc1cc(C=O)ccc1O,303.15,0.0015097,water,O,10.1021/je800205e
40892,CC1COc2c(N3CCN(C)CC3)c(F)cc3c(=O)c(C(=O)O)cn1c23,303.15,0.0001592,water,O,10.1021/je7007044
40898,CCn1cc(C(=O)O)c(=O)c2cc(F)c(N3CCNCC3)cc21,303.15,2.541e-05,water,O,10.1021/je7007044
40905,CCn1cc(C(=O)O)c(=O)c2cc(F)c(N3CCNC(C)C3)c(F)c21,303.15,4.33e-05,water,O,10.1021/je7007044
40912,O=C(O)c1cn(C2CC2)c2cc(N3CCNCC3)c(F)cc2c1=O,303.15,5.805e-06,water,O,10.1021/je7007044
40919,CCn1cc(C(=O)O)c(=O)c2cc(F)c(N3CCN(C)CC3)cc21,303.15,7.631e-06,water,O,10.1021/je7007044
40926,CCn1cc(C(=O)O)c(=O)c2cnc(N3CCNCC3)nc21,303.15,2.296e-05,water,O,10.1021/je7007044
40995,CC1(C)S[C@@H]2[C@H](N)C(=O)N2[C@H]1C(=O)O,303.15,0.00022603,water,O,10.1021/je700284r
41035,CCC[C@@H]1C[C@@H](C(=O)N[C@H]([C@H](C)Cl)[C@H]2O[C@H](SC)[C@H](OP(=O)(O)O)[C@@H](O)[C@H]2O)N(C)C1,303.15,0.20942,water,O,10.1021/je700216w
41076,Nc1ccc(S(=O)(=O)Nc2ncccn2)cc1,303.15,6.198e-06,water,O,10.1021/je0603978
41084,Cc1cc(C)nc(NS(=O)(=O)c2ccc(N)cc2)n1,303.15,3.565e-05,water,O,10.1021/je0603978
41092,COc1cc(NS(=O)(=O)c2ccc(N)cc2)nc(OC)n1,303.15,3.83e-06,water,O,10.1021/je0603978
41100,COc1cnc(NS(=O)(=O)c2ccc(N)cc2)nc1,303.15,7.19e-06,water,O,10.1021/je0603978
41108,COc1cc(NS(=O)(=O)c2ccc(N)cc2)ncn1,303.15,4.899e-06,water,O,10.1021/je0603978
41116,Cc1cc(NS(=O)(=O)c2ccc(N)cc2)no1,303.15,3.266e-05,water,O,10.1021/je0603978
41124,Nc1ccc(S(=O)(=O)[N-]c2cncc(Cl)n2)cc1.[Na+],303.15,1.35e-05,water,O,10.1021/je0603978
41133,CC(C)(O)P1(=O)OCC2(CO1)COP(=O)(C(C)(C)O)OC2,303.15,0.00607,water,O,10.1021/je700050r
41233,O=C(O)c1cc([N+](=O)[O-])cc([N+](=O)[O-])c1O,303.15,0.001711,water,O,10.1021/acs.jced.1c00396
41243,CC(C)(Oc1ccc(C2CC2(Cl)Cl)cc1)C(=O)O,303.15,1.537e-06,water,O,10.1021/acs.jced.1c00276
41253,CNc1nc(C)nc(OC)n1,303.15,5.333e-06,water,O,10.1021/acs.jced.1c00288
41263,COCCOc1ccccc1S(=O)(=O)NC(=O)Nc1nc(OC)nc(OC)n1,303.15,0.0007279,water,O,10.1021/acs.jced.1c00357
41273,COC(=O)c1sccc1S(=O)(=O)NC(=O)Nc1nc(C)nc(OC)n1,303.15,1.06e-05,water,O,10.1021/acs.jced.1c00267
41282,CN(C)C(=N)N=C(N)N.Cl,303.15,0.04728,water,O,10.1021/acs.jced.1c00338
41292,CCCc1cc(=O)[nH]c(=S)[nH]1,303.15,0.000166,water,O,10.1021/acs.jced.1c00071
41301,OCC(CO)(CO)CO,303.15,0.01142,water,O,10.1021/acs.jced.1c00080
41311,O=C1C=CC(=O)N1c1ccccc1Br,303.15,0.0005433,water,O,10.1021/acs.jced.1c00151
41321,COC(=O)c1c(Cl)nn(C)c1S(=O)(=O)NC(=O)Nc1nc(OC)cc(OC)n1,303.15,3.958e-07,water,O,10.1021/acs.jced.0c00633
41331,CCS(=O)(=O)c1cccnc1S(=O)(=O)NC(=O)Nc1nc(OC)cc(OC)n1,303.15,5.756e-07,water,O,10.1021/acs.jced.0c00632
41341,O=C(Nc1ccc(F)cc1F)c1cccnc1Oc1cccc(C(F)(F)F)c1,303.15,4.976e-07,water,O,10.1021/acs.jced.0c00631
41351,O=C1NC(=O)c2cc([N+](=O)[O-])ccc21,303.15,0.0004153,water,O,10.1021/acs.jced.0c00479
41361,Nc1cc(-c2ccncc2)c[nH]c1=O,303.15,1.534e-06,water,O,10.1021/acs.jced.0c00393
41371,Cc1[nH]c(=O)c(C#N)cc1-c1ccncc1,303.15,1.118e-06,water,O,10.1021/acs.jced.0c00394
41381,O=C(NCCO[N+](=O)[O-])c1cccnc1,303.15,0.0002905,water,O,10.1021/acs.jced.0c00370
41391,CCCCS(=O)(=O)N[C@@H](Cc1ccc(OCCCCC2CCNCC2)cc1)C(=O)O,303.15,2.077e-06,water,O,10.1021/acs.jced.0c00371
41401,CCOC(=O)C1(c2ccccc2)CCN(CCC(C#N)(c2ccccc2)c2ccccc2)CC1,303.15,1.479e-05,water,O,10.1021/acs.jced.0c00267
41410,O=Cc1ccc(O)c(Br)c1,303.15,0.0001959,water,O,10.1021/acs.jced.0c00043
41419,Nc1c(Cl)cc([N+](=O)[O-])cc1Cl,303.15,8.305e-06,water,O,10.1021/acs.jced.0c00199
41429,COc1cc([N+](=O)[O-])ccc1N,303.15,1.737e-05,water,O,10.1021/acs.jced.0c00041
41436,COc1c(C)c2c(c(O)c1C/C=C(\C)CCC(=O)OCCN1CCOCC1)C(=O)OC2,303.15,2.116e-06,water,O,10.1021/acs.jced.9b01139
41445,N[C@H](Cc1c[nH]cn1)C(=O)O,303.15,0.005564,water,O,10.1021/acs.jced.9b01051
41457,Cc1cc(=O)oc2cc(N)ccc12,303.15,3.409e-05,water,O,10.1021/acs.jced.9b00873
41468,C[C@H]1COc2c(N3CCN(C)CC3)c(F)c(N)c3c(=O)c(C(=O)O)cn1c23.Cl,303.15,0.002036,water,O,10.1021/acs.jced.9b00717
41476,COC(=O)Nc1nc2ccc(Sc3ccccc3)cc2[nH]1,303.15,9.03e-06,water,O,10.1021/acs.jced.9b00471
41484,O=c1[nH]c2ccccc2n1CCCN1CCC(n2c(=O)[nH]c3cc(Cl)ccc32)CC1,303.15,2.762e-07,water,O,10.1021/acs.jced.9b00216
41496,CP(=O)(O)CC[C@H](N)C(=O)O,303.15,0.0487,water,O,10.1021/acs.jced.9b00004
41505,CP(=O)(O)CC[C@H](N)C(=O)O.Cl,303.15,0.07109,water,O,10.1021/acs.jced.9b00004
41511,CCCc1cc(=O)[nH]c(=S)[nH]1,303.15,0.0001564,water,O,10.1021/acs.jced.9b00201
41523,c1ccc(-c2ccc(C(c3ccccc3)n3ccnc3)cc2)cc1,303.15,2.881e-05,water,O,10.1021/acs.jced.9b00097
41531,COc1cc2c(cc1OC)-c1cc3ccc(OC)c(OC)c3c[n+]1CC2.[Cl-],303.15,0.001358,water,O,10.1021/acs.jced.8b01055
41541,O=Cc1ccc(C(=O)O)cc1,303.15,5.906e-05,water,O,10.1021/acs.jced.8b01262
41551,O=C(O)[C@H]1O[C@@H](Oc2cc3oc(-c4ccccc4)cc(=O)c3c(O)c2O)[C@H](O)[C@@H](O)[C@@H]1O,303.15,9.78e-06,water,O,10.1021/acs.jced.8b01186
41560,C[C@@H]1CC[C@H]2[C@@H](C)[C@H](OC(=O)CCC(=O)O)O[C@@H]3O[C@@]4(C)CC[C@@H]1[C@@]23OO4,303.15,3.507e-05,water,O,10.1021/acs.jced.8b00988
41566,O=C(OCC1c2ccccc2-c2ccccc21)ON1C(=O)CCC1=O,303.15,9.441e-06,water,O,10.1021/acs.jced.8b00732
41576,COc1cc(N)nc(OC)n1,303.15,0.0005339,water,O,10.1021/acs.jced.8b00719
41584,C[C@H](O)[C@@H](O)[C@@H](O)[C@H](O)C=O,303.15,0.12898,water,O,10.1021/acs.jced.8b00361
41591,Cc1ncc(COP(=O)(O)O)c(C=O)c1O.O,303.15,0.00046546,water,O,10.1021/acs.jced.8b00309
41600,CS(=O)(=O)c1ccc([C@@H](O)[C@@H](CO)NC(=O)C(Cl)Cl)cc1,303.15,0.0001325,water,O,10.1021/acs.jced.8b00179
41615,CN1CC(O)c2cc(N=NC(N)=O)c(O)cc21,303.15,6.025e-05,water,O,10.1021/acs.jced.7b00982
41621,COc1ccc([C@@H]2CC(=O)c3c(O)cc(O[C@@H]4O[C@H](CO[C@@H]5O[C@@H](C)[C@H](O)[C@@H](O)[C@H]5O)[C@@H](O)[C@H](O)[C@H]4O)cc3O2)cc1O,303.15,1.52e-07,water,O,10.1021/acs.jced.7b00948
41650,O=S(=O)([O-])c1cccc2ccccc12.[Na+],303.15,0.013358,water,O,10.1021/je500517d
41673,O=[N+]([O-])c1cccc(Cl)c1Cl,303.15,1.2876e-05,water,O,10.1021/je500494d
41680,O=C1N2CN3C(=O)N4CN5C(=O)N6CN7C(=O)N8CN9C(=O)N%10CN%11C(=O)N%12CN1C1C2N2CN%13C(=O)N(CN%14C(=O)N(CN%15C(=O)N(CN%16C(=O)N(CN%17C(=O)N(CN1C2=O)C%12C%11%17)C%10C9%16)C8C7%15)C6C5%14)C4C3%13,303.15,0.002704,water,O,10.1021/je5005033
41691,CC(O)C(=O)[O-].CC(O)C(=O)[O-].O.O.O.O.O.[Ca+2],303.15,0.006424,water,O,10.1021/je500416k
41696,O=c1cc(-c2ccccc2)oc2cc(O)cc(O)c12,303.15,0.00238,water,O,10.1021/je5001654
41704,OC[C@H]1O[C@H](O[C@H]2O[C@H](CO)[C@@H](O)[C@H](O)[C@H]2O)[C@H](O)[C@@H](O)[C@@H]1O,303.15,0.0544558,water,O,10.1021/je5000428
41718,COC(=O)[C@H](Cc1ccccc1)NC(=O)[C@@H](N)CC(=O)O,303.15,0.0008364,water,O,10.1021/je500259m
41730,O=C(O)CC(O)(CC(=O)O)C(=O)O,303.15,0.1526,water,O,10.1021/je400838e
41732,CC(=O)Nc1ccc(O)cc1,303.15,0.0019,water,O,10.1021/je4008525
41744,N#CN=C(N)N,303.15,0.011375,water,O,10.1021/je400754e
41753,O=C1CC(c2ccc(O)cc2)Oc2cc(O)cc(O)c21,303.15,0.0114,water,O,10.1021/je4000718
41774,Nc1cccc(S(=O)(=O)c2cccc(N)c2)c1,303.15,4.294e-05,water,O,10.1016/j.jct.2021.106612
41784,c1ccc2[nH]c(-c3cscn3)nc2c1,303.15,5.254e-07,water,O,10.1016/j.jct.2021.106616
41794,CC(=O)Nc1ccc(OC(=O)c2ccccc2OC(C)=O)cc1,303.15,3.485e-06,water,O,10.1016/j.jct.2021.106517
41803,Cn1c(=O)cc(N2CCC[C@@H](N)C2)n(Cc2ccccc2C#N)c1=O.O=C(O)c1ccccc1,303.15,0.001292,water,O,10.1016/j.jct.2021.106474
41812,O=c1cc(CO)occ1O,303.15,0.006788,water,O,10.1016/j.jct.2020.106280
41822,O=Cc1cc(Br)c(O)c(Br)c1,303.15,0.0001671,water,O,10.1016/j.jct.2020.106252
41832,COc1cccc(C=O)c1O,303.15,0.000786,water,O,10.1016/j.jct.2020.106199
41841,Cl.c1ccc([C@H]2CN3CCSC3=N2)cc1,303.15,0.1127,water,O,10.1016/j.jct.2019.105882
41848,Cc1c(C(N)=O)cc([N+](=O)[O-])cc1[N+](=O)[O-],303.15,6.756e-05,water,O,10.1016/j.jct.2019.01.013
41858,N[C@H](Cc1c[nH]c2ccccc12)C(=O)O,303.15,0.002087,water,O,10.1016/j.jct.2018.08.018
41870,O=C1c2cccc(O)c2C(=O)c2c(O)cc(CO)cc21,303.15,1.206e-06,water,O,10.1016/j.jct.2016.02.020
41882,Brc1cn[nH]c1,303.15,0.007332,water,O,10.1016/j.jct.2017.05.005
41894,Clc1ccc(COC(Cn2ccnc2)c2ccc(Cl)cc2Cl)cc1.O=[N+]([O-])O,303.15,3.984e-05,water,O,10.1016/j.jct.2017.03.038
41906,Nc1ccccc1N,303.15,0.00678,water,O,10.1016/j.jct.2016.10.018
41918,CC(=O)[C@@]1(O)CC[C@H]2[C@@H]3CCC4=CC(=O)CC[C@]4(C)[C@H]3[C@@H](O)C[C@@]21C,303.15,3.465e-05,water,O,10.1016/j.jct.2016.10.046
41926,COc1ccc2nc(S(=O)Cc3ncc(C)c(OC)c3C)[nH]c2c1,303.15,0.0001145,water,O,10.1016/j.jct.2015.11.005
41950,COc1c(O)cc2c(c1O)[C@@H]1O[C@H](CO)[C@@H](O)[C@H](O)[C@H]1OC2=O,303.15,9.93e-05,water,O,10.1016/j.jct.2016.05.003
41958,NCCCC(=O)O,303.15,0.1832,water,O,10.1016/j.jct.2016.07.014
41967,CO/N=C(\C(=O)N[C@@H]1C(=O)N2C(C(=O)O)=C(CSc3nnnn3C)CS[C@H]12)c1csc(N)n1.CO/N=C(\C(=O)N[C@@H]1C(=O)N2C(C(=O)O)=C(CSc3nnnn3C)CS[C@H]12)c1csc(N)n1.Cl,303.15,5.294e-05,water,O,10.1016/j.jct.2015.11.024
41989,O=P([O-])([O-])OC[C@H]1O[C@@H](n2cnc3c(O)ncnc32)[C@H](O)[C@@H]1O.[Na+].[Na+],303.15,0.01759,water,O,10.1016/j.jct.2014.04.023
42006,Nc1nc(N)nc(NC2CC2)n1,303.15,0.00166,water,O,10.1016/j.fluid.2018.07.024
42015,Cn1cc([N+](=O)[O-])cn1,303.15,0.000154,water,O,10.1016/j.fluid.2018.05.023
42021,CC1(C)CCC2=C(O1)c1ccccc1C(=O)C2=O,303.15,3.72e-06,water,O,10.1016/j.fluid.2018.05.005
42068,Cn1nc([N+](=O)[O-])c([N+](=O)[O-])c1[N+](=O)[O-],303.15,0.000147,water,O,10.1016/j.fluid.2017.04.008
42077,CC(=O)NC[C@H]1CN(c2ccc(N3CCOCC3)c(F)c2)C(=O)O1,303.15,0.0001326,water,O,10.1016/j.fluid.2016.10.021
42083,COC(=O)[C@H](N)c1ccccc1.Cl,303.15,0.068,water,O,10.1016/j.fluid.2016.02.020
42089,CN1C(=O)CN=C(c2ccccc2)c2cc(Cl)ccc21,303.15,3.604e-06,water,O,10.1016/j.fluid.2015.10.024
42096,CNC[C@H](O)[C@@H](O)[C@H](O)[C@H](O)CO.Cc1c(Nc2ncccc2C(=O)O)cccc1C(F)(F)F,303.15,0.02105,water,O,10.1016/j.fluid.2015.06.026
42107,N[C@@H](C(=O)N[C@@H]1C(=O)N2C(C(=O)O)=C(Cl)CS[C@H]12)c1ccccc1.O,303.15,0.00051059,water,O,10.1016/j.fluid.2015.01.001
42115,N=C(N)N.O=[N+]([O-])O,303.15,0.0222,water,O,10.1016/j.fluid.2014.12.037
42127,Cc1nnc(SCC2=C(C(=O)O)N3C(=O)[C@@H](NC(=O)Cn4cnnn4)[C@H]3SC2)s1,303.15,2.2413e-05,water,O,10.1016/j.fluid.2014.12.020
42134,COc1cc(O)c2c(c1)oc(=O)c1c3cc(O)c(O)cc3oc21,303.15,0.00236994,water,O,10.1016/j.fluid.2014.10.031
42140,O=C(O)CC(O)C(=O)O,303.15,0.161,water,O,10.1016/j.fluid.2014.06.017
42159,O[C@H]1[C@H](O)[C@@H](O)[C@H](O)[C@@H](O)[C@H]1O,303.15,0.016929,water,O,10.1016/j.fluid.2013.11.045
42171,CCN1CCN(C(=O)N[C@@H](C(=O)N[C@@H]2C(=O)N3C(C(=O)O)=C(CSc4nnnn4C)CS[C@H]23)c2ccc(O)cc2)C(=O)C1=O,303.15,1.845e-05,water,O,10.1016/j.fluid.2013.11.005
42190,CC1(C)NC(=O)NC1=O,303.15,0.01548,n-propyl acetate,CCCOC(C)=O,10.1021/acs.jced.9b01020
42199,O=C(O)COc1ccc(Cl)cc1,303.15,0.0398,n-propyl acetate,CCCOC(C)=O,10.1021/acs.jced.1c00153
42207,Cc1c(N)cccc1C(=O)O,303.15,0.001417,n-propyl acetate,CCCOC(C)=O,10.1021/acs.jced.1c00109
42225,OCC(O)COc1ccc(Cl)cc1,303.15,0.07185,n-propyl acetate,CCCOC(C)=O,10.1021/acs.jced.0c00900
42234,CCOc1ccccc1C(N)=O,303.15,0.010109,n-propyl acetate,CCCOC(C)=O,10.1021/acs.jced.0c01081
42244,O=C(Nc1ccccc1)c1ccccc1O,303.15,0.0483253,n-propyl acetate,CCCOC(C)=O,10.1021/acs.jced.0c01078
42254,O=C(O)c1cccc(O)c1O,303.15,0.05811,n-propyl acetate,CCCOC(C)=O,10.1021/acs.jced.0c01032
42271,O=C1N=c2ccccc2=N1,303.15,0.0016461,n-propyl acetate,CCCOC(C)=O,10.1021/acs.jced.0c00165
42280,COc1cc2c(cc1OC)C(=O)CC2,303.15,0.069437,n-propyl acetate,CCCOC(C)=O,10.1021/acs.jced.1c00040
42288,O=c1[nH]c2ccccc2c(=O)o1,303.15,0.00318,n-propyl acetate,CCCOC(C)=O,10.1021/acs.jced.9b01164
42298,CC(=O)N[C@@H](CC(C)C)C(=O)O,303.15,0.001774,n-propyl acetate,CCCOC(C)=O,10.1021/acs.jced.9b01151
42307,COC(=O)c1ccc(C(=O)OC)cc1,303.15,0.0248271,n-propyl acetate,CCCOC(C)=O,10.1021/acs.jced.9b00658
42342,COC(=O)[C@H](N)c1ccc(O)cc1,303.15,0.0006631,n-propyl acetate,CCCOC(C)=O,10.1021/acs.jced.6b00415
42351,S=C(Nc1ccccc1)Nc1ccccc1,303.15,0.01404,n-propyl acetate,CCCOC(C)=O,10.1016/j.jct.2021.106605
42361,Nc1nc2ccc(OC(F)(F)F)cc2s1,303.15,0.39846,n-propyl acetate,CCCOC(C)=O,10.1016/j.jct.2021.106569
42371,CN1CCN(C2=Nc3cc(Cl)ccc3Nc3ccccc32)CC1,303.15,0.01941,n-propyl acetate,CCCOC(C)=O,10.1016/j.jct.2021.106398
42381,CCCCN(CCCC)CC(O)c1cc(Cl)cc2c1-c1ccc(Cl)cc1/C2=C/c1ccc(Cl)cc1,303.15,0.01089,n-propyl acetate,CCCOC(C)=O,10.1016/j.jct.2020.106323
42391,O=C(O)CCc1nc(-c2ccccc2)c(-c2ccccc2)o1,303.15,0.00781,n-propyl acetate,CCCOC(C)=O,10.1016/j.jct.2020.106239
42401,N#Cc1ccc2c(c1)OCO2,303.15,0.1761,n-propyl acetate,CCCOC(C)=O,10.1016/j.jct.2020.106191
42409,O=C(Nc1ccccc1-c1ccc(Cl)cc1)c1cccnc1Cl,303.15,0.01125,n-propyl acetate,CCCOC(C)=O,10.1016/j.jct.2017.04.017
42431,O=C1NC(=O)C2C3C=CC(C3)C12,303.15,0.012413,n-propyl acetate,CCCOC(C)=O,10.1016/j.fluid.2019.112301
42442,NS(=O)(=O)Cc1noc2ccccc12,303.15,0.08116,DMF,CN(C)C=O,10.1021/acs.jced.0c00249
42451,CC(=O)Oc1ccccc1C(=O)Nc1ncc([N+](=O)[O-])s1,303.15,0.09006,DMF,CN(C)C=O,10.1021/acs.jced.0c00254
42459,O=Cc1cc(Br)c(O)c(Br)c1,303.15,0.01569,DMF,CN(C)C=O,10.1021/acs.jced.0c00376
42469,CC(=O)Nc1ccc(OC(=O)c2ccccc2OC(C)=O)cc1,303.15,0.02281,DMF,CN(C)C=O,10.1021/acs.jced.0c00301
42477,O=C(Nc1ccccc1)c1ccccc1,303.15,0.148361,DMF,CN(C)C=O,10.1021/acs.jced.0c00167
42485,O=C1CC[C@@H](C(=O)N2CSC[C@H]2C(=O)O)N1,303.15,0.015095,DMF,CN(C)C=O,10.1021/acs.jced.0c00616
42504,CC(=O)Nc1ccccc1[N+](=O)[O-],303.15,0.2656,DMF,CN(C)C=O,10.1021/acs.jced.1c00037
42513,Nc1cccc(S(=O)(=O)c2cccc(N)c2)c1,303.15,0.1201,DMF,CN(C)C=O,10.1021/acs.jced.1c00062
42524,CN1COCN(Cc2cnc(Cl)s2)/C1=N/[N+](=O)[O-],303.15,0.09854,DMF,CN(C)C=O,10.1021/acs.jced.0c00752
42535,COc1cc2nc(Cl)nc(N)c2cc1OC,303.15,0.00817,DMF,CN(C)C=O,10.1021/acs.jced.0c00506
42541,CCOc1ccccc1C(N)=O,303.15,0.07535,DMF,CN(C)C=O,10.1021/acs.jced.0c01081
42552,NC(=O)[C@@H]1CCCN1,303.15,0.15599,DMF,CN(C)C=O,10.1021/acs.jced.0c00961
42563,CC(=O)O[C@]1(C(C)=O)CC[C@H]2[C@@H]3C=C(Cl)C4=CC(=O)[C@@H]5C[C@@H]5[C@]4(C)[C@H]3CC[C@@]21C,303.15,0.00044257,DMF,CN(C)C=O,10.1021/acs.jced.0c00803
42571,Nc1ccc(Cc2ccc(N)c(Cl)c2)cc1Cl,303.15,0.3727,DMF,CN(C)C=O,10.1021/acs.jced.0c00655
42583,C#C[C@]1(O)CC[C@H]2[C@@H]3CCC4=CC(=O)CC[C@@H]4[C@H]3C(=C)C[C@@]21CC,303.15,0.0974,DMF,CN(C)C=O,10.1021/acs.jced.0c00201
42597,Nc1nc(=O)[nH]cc1F,303.15,0.001926,DMF,CN(C)C=O,10.1021/acs.jced.1c00206
42607,O=C(O)c1cccc([N+](=O)[O-])c1O,303.15,0.1275,DMF,CN(C)C=O,10.1021/acs.jced.1c00259
42617,O=C(O)c1cc([N+](=O)[O-])cc([N+](=O)[O-])c1O,303.15,0.1523,DMF,CN(C)C=O,10.1021/acs.jced.0c00122
42628,CC(C)(c1ccc(O)cc1)c1ccc(O)cc1,303.15,0.4094,DMF,CN(C)C=O,10.1021/acs.jced.0c00166
42637,O=c1cc(CBr)c2ccccc2[nH]1,303.15,0.00634,DMF,CN(C)C=O,10.1021/acs.jced.0c00303
42644,O=C(O)Cc1ccccc1[N+](=O)[O-],303.15,0.2768,DMF,CN(C)C=O,10.1021/acs.jced.0c00543
42654,O=C(O)Cc1ccc([N+](=O)[O-])cc1,303.15,0.251,DMF,CN(C)C=O,10.1021/acs.jced.0c00182
42664,Oc1ccc(OCc2ccccc2)cc1,303.15,8.8e-05,DMF,CN(C)C=O,10.1021/acs.jced.9b00817
42670,Oc1c(Br)cc(Br)c2cccnc12,303.15,0.0106,DMF,CN(C)C=O,10.1021/acs.jced.9b01190
42682,Cc1c(Br)cccc1C(=O)O,303.15,0.25807,DMF,CN(C)C=O,10.1021/acs.jced.9b01007
42689,O=[N+]([O-])N1CN([N+](=O)[O-])CN([N+](=O)[O-])CN([N+](=O)[O-])C1,303.15,0.0097,DMF,CN(C)C=O,10.1021/acs.jced.9b01192
42715,O=Cc1ccc(O)c(Br)c1,303.15,0.02752,DMF,CN(C)C=O,10.1021/acs.jced.9b01004
42726,O=C(O)c1cccnc1Cl,303.15,0.2911,DMF,CN(C)C=O,10.1021/acs.jced.9b00661
42734,NC(N)=NC(N)=NCCc1ccccc1,303.15,0.03528,DMF,CN(C)C=O,10.1021/acs.jced.9b00844
42741,N[C@H](Cc1c[nH]cn1)C(=O)O,303.15,0.2005,DMF,CN(C)C=O,10.1021/acs.jced.9b00659
42752,O=C(O)C=CC(=O)O.OCCOCCN1CCN(C2=Nc3ccccc3Sc3ccccc32)CC1.OCCOCCN1CCN(C2=Nc3ccccc3Sc3ccccc32)CC1,303.15,0.00598,DMF,CN(C)C=O,10.1021/acs.jced.7b00518
42762,O=C1C=CC(=O)N1c1ccccc1Br,303.15,0.2841,DMF,CN(C)C=O,10.1021/acs.jced.9b00560
42773,C[C@]12CCC3=C4CCC(=O)C=C4CC[C@H]3[C@@H]1CC[C@@]2(O)CC#N,303.15,0.0343,DMF,CN(C)C=O,10.1021/acs.jced.9b00696
42781,Cc1nc(N)nc(N)n1,303.15,0.001796,DMF,CN(C)C=O,10.1021/acs.jced.9b00593
42810,Nc1nnn[nH]1,303.15,0.04933,DMF,CN(C)C=O,10.1021/acs.jced.9b00385
42816,NNC(=O)NN.O=[N+]([O-])NC1=NC(C2N=NC(N[N+](=O)[O-])=N2)N=N1,303.15,0.0005178,DMF,CN(C)C=O,10.1021/acs.jced.9b00275
42830,CC(=NC#N)N(C)Cc1ccc(Cl)nc1,303.15,0.3685,DMF,CN(C)C=O,10.1021/acs.jced.9b00294
42839,Cc1n[nH]c2cc([N+](=O)[O-])ccc12,303.15,0.236,DMF,CN(C)C=O,10.1021/acs.jced.8b01256
42850,CN(C)/C=C/C(=O)c1cccnc1,303.15,0.24859,DMF,CN(C)C=O,10.1021/acs.jced.9b00047
42861,CC1=NNC(=O)N(/N=C/c2cccnc2)C1,303.15,0.005823,DMF,CN(C)C=O,10.1021/acs.jced.9b00229
42869,N[C@@H](Cc1ccc(O)cc1)C(=O)O,303.15,0.0006188,DMF,CN(C)C=O,10.1021/acs.jced.9b00258
42878,N[C@H](CC(=O)O)C(=O)O,303.15,0.01461,DMF,CN(C)C=O,10.1021/acs.jced.9b00320
42891,CCOC(=O)[C@@H](C)Oc1ccc(Oc2cnc3cc(Cl)ccc3n2)cc1,303.15,0.02383,DMF,CN(C)C=O,10.1021/acs.jced.8b01181
42900,N#CCC(N)=O,303.15,0.325,DMF,CN(C)C=O,10.1021/acs.jced.8b01205
42908,NC(=O)c1ccc([N+](=O)[O-])cc1,303.15,0.06906,DMF,CN(C)C=O,10.1021/acs.jced.9b00065
42918,C[C@@H](O)[C@H]1C(=O)N2C(C(=O)[O-])=C(SC3Cn4cnc[n+]4C3)[C@H](C)[C@H]12,303.15,8.722e-05,DMF,CN(C)C=O,10.1021/acs.jced.8b01051
42928,O=C(O)Cc1c[nH]c2ccccc12,303.15,3.903e-05,DMF,CN(C)C=O,10.1021/acs.jced.8b01265
42939,CC(C)N1C(=O)N(c2ccccc2)CSC1=NC(C)(C)C,303.15,0.1039,DMF,CN(C)C=O,10.1021/acs.jced.8b01099
42947,COC(=O)Nc1nc2ccc(C(=O)c3ccc(F)cc3)cc2[nH]1,303.15,0.001158,DMF,CN(C)C=O,10.1021/acs.jced.8b01126
42959,Nc1nc(Cl)c2[nH]cnc2n1,303.15,0.004974,DMF,CN(C)C=O,10.1021/acs.jced.8b01014
42972,COc1c(N2CCNC(C)C2)c(F)cc2c(=O)c(C(=O)O)cn(C3CC3)c12,303.15,0.006525,DMF,CN(C)C=O,10.1021/acs.jced.8b00902
42980,NNC(=O)c1ccncc1,303.15,0.04118,DMF,CN(C)C=O,10.1021/acs.jced.8b00785
42990,CS(=O)(=O)c1ccc([C@@H](O)[C@@H](CO)NC(=O)C(Cl)Cl)cc1,303.15,0.03082,DMF,CN(C)C=O,10.1021/acs.jced.7b00542
43000,COCC(=O)Nc1c(I)c(C(=O)NCC(O)CO)c(I)c(C(=O)N(C)CC(O)CO)c1I,303.15,0.0046667,DMF,CN(C)C=O,10.1021/acs.jced.8b00416
43014,On1nnc2ccccc21,303.15,0.1213,DMF,CN(C)C=O,10.1021/acs.jced.7b00316
43024,COc1ccc(CN2CCNCC2)c(OC)c1OC.Cl,303.15,0.0007543,DMF,CN(C)C=O,10.1021/acs.jced.8b00235
43034,O=c1nc[nH]c2[nH]ncc12,303.15,0.005095,DMF,CN(C)C=O,10.1021/acs.jced.8b00430
43043,Nc1ccc(C(=O)O)cc1.[K],303.15,0.001526,DMF,CN(C)C=O,10.1021/acs.jced.7b00978
43051,C[C@@H]1O[C@@H]1P(=O)([O-])[O-].[Na+].[Na+],303.15,0.0003963,DMF,CN(C)C=O,10.1021/acs.jced.7b00638
43060,O=[N+]([O-])N1C2C3N([N+](=O)[O-])C1C1N([N+](=O)[O-])C(C(N1[N+](=O)[O-])N3[N+](=O)[O-])N2[N+](=O)[O-],303.15,0.10441,DMF,CN(C)C=O,10.1021/acs.jced.6b00664
43071,CCCCC1C(=O)N(c2ccccc2)N(c2ccccc2)C1=O,303.15,0.18687,DMF,CN(C)C=O,10.1021/acs.jced.6b00911
43080,CCOC(=O)N1CCC(=C2c3ccc(Cl)cc3CCc3cccnc32)CC1,303.15,0.04737,DMF,CN(C)C=O,10.1021/acs.jced.6b00721
43087,COC(=O)c1c(C)cc(O)c(C)c1O,303.15,0.4591,DMF,CN(C)C=O,10.1021/acs.jced.6b00646
43100,O=C1NC(=O)c2cc([N+](=O)[O-])ccc21,303.15,0.09125,DMF,CN(C)C=O,10.1021/acs.jced.6b00230
43109,[NH3+]O.[NH3+]O.[O-]n1nnnc1-c1nnnn1[O-],303.15,9.564e-05,DMF,CN(C)C=O,10.1021/acs.jced.6b00009
43116,O=C1OC[C@H]2[C@@H]1N(Cc1ccccc1)C(=O)N2Cc1ccccc1,303.15,0.1795,DMF,CN(C)C=O,10.1021/acs.jced.5b00857
43122,OC[C@H](O)[C@@H](O)[C@H](O[C@H]1O[C@H](CO)[C@@H](O)[C@H](O)[C@H]1O)[C@H](O)CO,303.15,0.008187,DMF,CN(C)C=O,10.1021/acs.jced.5b00565
43141,C=CC(=O)NC(C)(C)C,303.15,0.03335,DMF,CN(C)C=O,10.1021/acs.jced.5b00135
43164,O=C1Nc2ccccc2C1=O,303.15,0.16049,DMF,CN(C)C=O,10.1021/je500396b
43183,O=C1O[B-]2(OC1=O)OC(=O)C(=O)O2.[Li+],303.15,0.08377,DMF,CN(C)C=O,10.1021/je500068b
43211,CCc1ccc(CCOc2ccc(CC3SC(=O)NC3=O)cc2)nc1.Cl,303.15,0.0226955,DMF,CN(C)C=O,10.1021/je101230a
43261,COc1ccc(C(=O)/C=C/c2ccc(-c3cccc([N+](=O)[O-])c3)o2)cc1,303.15,0.0112,DMF,CN(C)C=O,10.1021/je900370q
43266,O=C(/C=C/c1ccc(-c2cccc([N+](=O)[O-])c2)o1)c1ccc([N+](=O)[O-])cc1,303.15,0.0024,DMF,CN(C)C=O,10.1021/je900370q
43271,O=C(/C=C/c1ccc(-c2cccc([N+](=O)[O-])c2)o1)c1cccc([N+](=O)[O-])c1,303.15,0.0061,DMF,CN(C)C=O,10.1021/je900370q