,SMILES,"T,K",Solubility,Solvent,SMILES_Solvent,Source
18073,O=C1N2CN3C(=O)N([N+](=O)[O-])C4C3N(CN3C(=O)N([N+](=O)[O-])C(C23)N1[N+](=O)[O-])C(=O)N4[N+](=O)[O-],303.15,0.0002057,acetone,CC(C)=O,10.1021/je500392g
18081,C=CC1=C(C(=O)O)N2C(=O)[C@@H](NC(=O)/C(=N\OCC(=O)O)c3csc(N)n3)[C@H]2SC1.O.O.O,303.15,0.004402,acetone,CC(C)=O,10.1021/je5000605
18091,C[N+](C)(C)C[C@H](O)CC(=O)[O-],303.15,0.000131,acetone,CC(C)=O,10.1021/je500078n
18106,O=C(O)COC(=O)Cc1ccccc1Nc1c(Cl)cccc1Cl,303.15,0.06777,acetone,CC(C)=O,10.1021/je500038u
18145,CC[C@H]1OC(=O)[C@H](C)[C@@H](O[C@H]2C[C@@](C)(OC)[C@@H](O)[C@H](C)O2)[C@H](C)[C@@H](O[C@@H]2O[C@H](C)C[C@H](N(C)C)[C@H]2O)[C@](C)(O)C[C@@H](C)CN(C)[C@H](C)[C@@H](O)[C@]1(C)O.O,303.15,0.0464,acetone,CC(C)=O,10.1021/je400899e
18161,O=C1OC(=O)c2ccc(Br)c3cccc1c23,303.15,0.00224,acetone,CC(C)=O,10.1021/je400259a
18164,O=P(Oc1ccccc1)(Oc1ccccc1)N1CCN(P(=O)(Oc2ccccc2)Oc2ccccc2)CC1,303.15,0.0005593,acetone,CC(C)=O,10.1021/je400412z
18174,CC1(C)COP(=O)(C(C)(C)O)OC1,303.15,0.00596,acetone,CC(C)=O,10.1021/je4003114
18190,O=C(O)c1cccc(Cl)c1C(=O)c1ccccc1,303.15,0.003084,acetone,CC(C)=O,10.1021/je400246s
18200,O=C1c2ccccc2C(=O)c2c(Cl)cccc21,303.15,0.006111,acetone,CC(C)=O,10.1021/je400246s
18230,Cc1nc(-c2ccc(OCC(C)C)c(C#N)c2)sc1C(=O)O,303.15,0.0092127,acetone,CC(C)=O,10.1021/je300647k
18268,Nc1ccc(Cl)nn1,303.15,0.0042339,acetone,CC(C)=O,10.1021/je3001188
18358,CCOc1nc2cccc(C(=O)OC(C)OC(=O)OC3CCCCC3)c2n1Cc1ccc(-c2ccccc2-c2nnn[nH]2)cc1,303.15,0.00946,acetone,CC(C)=O,10.1021/je101020m
18369,O=C(O)CC(O)(CC(=O)O)C(=O)O,303.15,0.1061,acetone,CC(C)=O,10.1021/je101167z
18407,O=P1(O)OCC2(CO1)COP(=O)(O)OC2,303.15,0.0045,acetone,CC(C)=O,10.1021/je100341q
18471,N[C@@H](Cc1ccc([N+](=O)[O-])cc1[N+](=O)[O-])C(=O)O,303.15,3.063e-06,acetone,CC(C)=O,10.1021/je100352r
18503,Oc1cc(O)c2cc(O)c(-c3cc(O)c(O)c(O)c3)[o+]c2c1,303.15,6.6e-11,acetone,CC(C)=O,10.1021/je900851k
18527,CN/C(=C\[N+](=O)[O-])NCCSCc1csc(CN(C)C)n1,303.15,0.01025,acetone,CC(C)=O,10.1021/je1000928
18537,CC[C@H](CC[C@@H](C)[C@H]1CC[C@H]2[C@@H]3CC=C4C[C@@H](O)CC[C@]4(C)[C@H]3CC[C@@]21C)C(C)C,303.15,0.006163,acetone,CC(C)=O,10.1021/je9009909
18545,Nc1ccc(S(=O)(=O)Nc2ncccn2)cc1,303.15,9.173e-05,acetone,CC(C)=O,10.1021/je900742p
18571,C[C@H](CS)C(=O)N1CCC[C@H]1C(=O)O,303.15,0.07539,acetone,CC(C)=O,10.1021/je900401z
18595,F[P-](F)(F)(F)(F)F.F[P-](F)(F)(F)(F)F.c1cc[n+](CCCCCC[n+]2ccccc2)cc1,303.15,0.004307,acetone,CC(C)=O,10.1021/je9004855
18645,Nc1ccc(S(N)(=O)=O)cc1,303.15,0.09941,acetone,CC(C)=O,10.1021/je900038m
18669,Nc1cccnc1,303.15,0.3048,acetone,CC(C)=O,10.1021/je800945e
18676,CC1=C(/C=C/C(C)=C/C=C/C(C)=C/C=C/C=C(C)/C=C/C=C(C)/C=C/C2=C(C)C(=O)CCC2(C)C)C(C)(C)CCC1=O,303.15,3.1e-05,acetone,CC(C)=O,10.1021/je800801x
18684,O=C1OC(=O)c2c(Cl)cccc21,303.15,0.2344,acetone,CC(C)=O,10.1021/je800869g
18693,O=C1OC(=O)c2cc(Cl)ccc21,303.15,0.3155,acetone,CC(C)=O,10.1021/je800869g
18755,CN1CCN(c2cc3c(cc2F)c(=O)c(C(=O)O)cn3-c2ccc(F)cc2)CC1,303.15,0.0081,acetone,CC(C)=O,10.1021/je800742d
18764,C[C@@H]1CC[C@H]2[C@@H](C)C(=O)O[C@@H]3O[C@@]4(C)CC[C@@H]1[C@]32OO4,303.15,0.01140663,acetone,CC(C)=O,10.1021/je800515w
18769,CC(=O)OCC(=O)[C@@]12N=C(C)O[C@@H]1C[C@H]1[C@@H]3CCC4=CC(=O)C=C[C@]4(C)[C@H]3[C@@H](O)C[C@@]12C,303.15,0.00721402,acetone,CC(C)=O,10.1021/je800790g
18815,CCN1CCN(c2cc3c(cc2F)c(=O)cc(C(=O)[O-])n3C2CC2)CC1.[Na+],303.15,0.00252,acetone,CC(C)=O,10.1021/je8005826
18867,CC(=O)C1=CC[C@H]2[C@@H]3CCC4=CC(=O)C=C[C@]4(C)[C@H]3[C@@H](O)C[C@]12C,303.15,0.002153,acetone,CC(C)=O,10.1021/je800174u
18902,CO[C@H]1/C=C/O[C@@]2(C)Oc3c(C)c(O)c4c(O)c(c(/C=N/N5CCN(C6CCCC6)CC5)c(O)c4c3C2=O)NC(=O)/C(C)=C\C=C\[C@H](C)[C@H](O)[C@@H](C)[C@@H](O)[C@@H](C)[C@H](OC(C)=O)[C@@H]1C,303.15,0.000576,acetone,CC(C)=O,10.1021/je7007457
19006,O=[N+]([O-])N1CN([N+](=O)[O-])CN([N+](=O)[O-])C1,303.15,0.0234,acetone,CC(C)=O,10.1021/je7002463
19018,OC[C@H](O)C(O)[C@H](O)CO,303.15,0.0003023,acetone,CC(C)=O,10.1021/je700131z
19079,O=C1OC(=O)C2C3C=CC(O3)C12,303.15,0.070296,acetone,CC(C)=O,10.1021/acs.jced.0c00569
19089,O=C1NC(=O)c2cc([N+](=O)[O-])ccc21,303.15,0.02933,acetone,CC(C)=O,10.1021/acs.jced.0c00479
19098,CC(=O)Oc1ccccc1C(=O)O,303.15,0.104806,acetone,CC(C)=O,10.1021/acs.jced.9b01057
19109,CC(=O)Oc1ccc(C(c2ccc(OC(C)=O)cc2)c2ccccn2)cc1,303.15,0.003181,acetone,CC(C)=O,10.1021/acs.jced.9b00728
19116,N#CC(c1ccc(Cl)cc1)c1c(Cl)cc(-n2ncc(=O)[nH]c2=O)cc1Cl,303.15,0.02152,acetone,CC(C)=O,10.1021/acs.jced.9b00353
19125,CCCN(CCC)S(=O)(=O)c1ccc(C(=O)O)cc1,303.15,0.02336,acetone,CC(C)=O,10.1021/acs.jced.8b00863
19135,C[C@H](O)[C@@H](O)[C@@H](O)[C@H](O)C=O,303.15,0.00032,acetone,CC(C)=O,10.1021/acs.jced.8b00361
19142,Cc1ncc(COP(=O)(O)O)c(C=O)c1O.O,303.15,2.42e-06,acetone,CC(C)=O,10.1021/acs.jced.8b00309
19162,CCOc1cc(C=O)ccc1O,303.15,0.369,acetone,CC(C)=O,10.1021/acs.jced.6b00972
19170,O=S(=O)(c1ccc(O)cc1)c1ccc(O)cc1,303.15,0.02681,acetone,CC(C)=O,10.1021/acs.jced.6b00421
19178,CC(C)OC(=O)C(C)(C)Oc1ccc(C(=O)c2ccc(Cl)cc2)cc1,303.15,0.1802957,acetone,CC(C)=O,10.1021/acs.jced.6b00268
19192,O=C(O)COc1ccc(Cl)cc1Cl,303.15,0.1626,acetone,CC(C)=O,10.1016/j.jct.2021.106589
19201,Nc1nc2ccc(OC(F)(F)F)cc2s1,303.15,0.42476,acetone,CC(C)=O,10.1016/j.jct.2021.106569
19212,Cn1c(=O)cc(N2CCC[C@@H](N)C2)n(Cc2ccccc2C#N)c1=O.O=C(O)c1ccccc1,303.15,0.004696,acetone,CC(C)=O,10.1016/j.jct.2021.106474
19220,CC(=O)Nc1ccc(C(=O)O)cc1,303.15,0.005384,acetone,CC(C)=O,10.1016/j.jct.2021.106478
19230,CN1CCN(C2=Nc3cc(Cl)ccc3Nc3ccccc32)CC1,303.15,0.02233,acetone,CC(C)=O,10.1016/j.jct.2021.106451
19240,COCCOC(=O)C1=C(C)NC(C)=C(C(=O)OC(C)C)C1c1cccc([N+](=O)[O-])c1,303.15,0.02166,acetone,CC(C)=O,10.1016/j.jct.2020.106259
19249,O=c1cc(CO)occ1O,303.15,0.005561,acetone,CC(C)=O,10.1016/j.jct.2020.106280
19259,CC(C)Oc1ccc2c(=O)c(-c3ccccc3)coc2c1,303.15,0.024088,acetone,CC(C)=O,10.1016/j.jct.2020.106231
19269,N#Cc1ccc2c(c1)OCO2,303.15,0.2068,acetone,CC(C)=O,10.1016/j.jct.2020.106191
19280,O=c1[nH]c(=O)n(C2CCCO2)cc1F,303.15,0.027657,acetone,CC(C)=O,10.1016/j.jct.2020.106090
19289,COc1ccccc1N1CCN(CC(O)COc2cccc3ccccc23)CC1,303.15,0.008945,acetone,CC(C)=O,10.1016/j.jct.2019.105969
19298,Cc1ccc(NC(=O)c2ccc(CN3CCN(C)CC3)cc2)cc1Nc1nccc(-c2cccnc2)n1,303.15,0.000744,acetone,CC(C)=O,10.1016/j.jct.2019.106031
19307,COC(=O)Nc1nc2ccc(Sc3ccccc3)cc2[nH]1,303.15,0.0002408,acetone,CC(C)=O,10.1016/j.jct.2019.07.018
19312,c1ccc2c(c1)sc1ccccc12,303.15,0.0884,acetone,CC(C)=O,10.1016/j.jct.2018.09.017
19330,c1ccc(-c2nnn[nH]2)cc1,303.15,0.02359,acetone,CC(C)=O,10.1016/j.jct.2017.04.019
19345,Cc1cc(C)[nH]n1,303.15,0.1433,acetone,CC(C)=O,10.1016/j.jct.2017.02.011
19360,CC(C)c1ncc[nH]1,303.15,0.1396,acetone,CC(C)=O,10.1016/j.jct.2016.12.028
19373,Clc1ccc2c(c1)Nc1ccccc1S2,303.15,0.04209,acetone,CC(C)=O,10.1016/j.jct.2016.11.029
19388,Nc1ccc([N+](=O)[O-])cc1N,303.15,0.03146,acetone,CC(C)=O,10.1016/j.jct.2016.11.014
19405,Nc1cc(Cl)ccc1C(=O)O,303.15,0.03514,acetone,CC(C)=O,10.1016/j.jct.2016.11.019
19420,CC(C)(C)C(O)(CCc1ccc(Cl)cc1)Cn1cncn1,303.15,0.07886,acetone,CC(C)=O,10.1016/j.jct.2016.11.032
19435,Cc1cc([N+](=O)[O-])ccc1N,303.15,0.1422,acetone,CC(C)=O,10.1016/j.jct.2016.10.037
19449,O=Cc1cccc([N+](=O)[O-])c1,303.15,0.5854,acetone,CC(C)=O,10.1016/j.jct.2016.10.040
19455,CC(=O)[C@@]1(O)CC[C@H]2[C@@H]3CCC4=CC(=O)CC[C@]4(C)[C@H]3[C@@H](O)C[C@@]21C,303.15,0.01058,acetone,CC(C)=O,10.1016/j.jct.2016.10.046
19466,Cn1cnc([N+](=O)[O-])c1Cl,303.15,0.03909,acetone,CC(C)=O,10.1016/j.jct.2016.10.006
19479,COc1cc(Cl)nc(N)n1,303.15,0.02549,acetone,CC(C)=O,10.1016/j.jct.2016.10.020
19487,NC(=O)N1c2ccccc2CC(=O)c2ccccc21,303.15,0.00154,acetone,CC(C)=O,10.1016/j.jct.2016.09.011
19495,O=Cc1ccc([N+](=O)[O-])cc1,303.15,0.1661,acetone,CC(C)=O,10.1016/j.jct.2016.09.012
19504,O=C(NC[C@H]1CN(c2ccc(N3CCOCC3=O)cc2)C(=O)O1)c1ccc(Cl)s1,303.15,0.0001745,acetone,CC(C)=O,10.1016/j.jct.2016.09.036
19516,Nc1nnc[nH]1,303.15,0.009496,acetone,CC(C)=O,10.1016/j.jct.2016.09.033
19526,C[C@@H]1O[C@@H](OC[C@H]2O[C@@H](Oc3c(-c4ccc(OCCO)c(OCCO)c4)oc4cc(OCCO)cc(O)c4c3=O)[C@H](O)[C@@H](O)[C@@H]2O)[C@H](O)[C@H](O)[C@H]1O,303.15,5.5e-05,acetone,CC(C)=O,10.1016/j.jct.2016.09.015
19537,O=Cc1ccc(C=O)cc1,303.15,0.09329,acetone,CC(C)=O,10.1016/j.jct.2016.07.013
19546,C=CC(=O)N1CCC[C@@H](n2nc(-c3ccc(Oc4ccccc4)cc3)c3c(N)ncnc32)C1,303.15,0.007943,acetone,CC(C)=O,10.1016/j.jct.2016.08.034
19561,O=[N+]([O-])c1ccc(O)c2ncccc12,303.15,0.008309,acetone,CC(C)=O,10.1016/j.jct.2016.04.018
19571,COc1ccc2nc(S(=O)Cc3ncc(C)c(OC)c3C)[nH]c2c1,303.15,0.003773,acetone,CC(C)=O,10.1016/j.jct.2015.11.005
19586,O=C1NC(=O)c2ccccc21,303.15,0.01492,acetone,CC(C)=O,10.1016/j.jct.2015.10.024
19603,Cc1cccc([N+](=O)[O-])c1N,303.15,0.2334,acetone,CC(C)=O,10.1016/j.jct.2016.05.027
19618,O=S(=O)(c1ccc(O)cc1)c1ccccc1O,303.15,0.133,acetone,CC(C)=O,10.1016/j.jct.2016.07.001
19631,Cc1cc(C(=O)O)ccc1[N+](=O)[O-],303.15,0.02855,acetone,CC(C)=O,10.1016/j.jct.2016.07.023
19643,CN(C)CCOC(c1ccccc1)c1ccccc1.Cl,303.15,0.00352,acetone,CC(C)=O,10.1016/j.jct.2015.09.032
19654,CC(=O)O[C@H]1CC[C@@]2(C)C(=CC[C@H]3[C@@H]4CCC(=O)[C@@]4(C)CC[C@@H]32)C1,303.15,0.03125,acetone,CC(C)=O,10.1016/j.jct.2016.01.023
19670,N=C(Nc1ccccc1)Nc1ccccc1,303.15,0.1058,acetone,CC(C)=O,10.1016/j.jct.2016.03.011
19679,C/C=C/C=C/C(=O)O,303.15,0.08711,acetone,CC(C)=O,10.1016/j.jct.2015.02.004
19698,O=C(O)CCCCCCCCCCCC(=O)O,303.15,0.00633,acetone,CC(C)=O,10.1016/j.jct.2015.05.026
19715,O=[N+]([O-])c1cccc2cccc([N+](=O)[O-])c12,303.15,0.02609,acetone,CC(C)=O,10.1016/j.jct.2015.07.010
19728,CC(C)(C)[C@H](O)[C@H](Cc1ccc(Cl)cc1)n1cncn1,303.15,0.0269,acetone,CC(C)=O,10.1016/j.jct.2016.09.038
19741,CCOC(=O)Cc1c(C(=O)OCC)sc(N)c1C#N,303.15,0.09023,acetone,CC(C)=O,10.1016/j.jct.2015.11.025
19751,O=C1c2cccc(Cl)c2C(=O)N1c1ccccc1,303.15,0.005046,acetone,CC(C)=O,10.1016/j.jct.2016.01.003
19762,O=P([O-])([O-])OC[C@H]1O[C@@H](n2cnc3c(O)ncnc32)[C@H](O)[C@@H]1O.[Na+].[Na+],303.15,0.0001764,acetone,CC(C)=O,10.1016/j.jct.2014.04.023
19774,CN(C)[C@@H]1C(O)=C(C(N)=O)C(=O)[C@@]2(O)C(O)=C3C(=O)c4c(O)cccc4[C@@](C)(O)[C@H]3C[C@@H]12.Cl,303.15,1.57e-05,acetone,CC(C)=O,10.1016/j.jct.2012.08.007
19811,O=C(/C=C/C=C/c1ccc2c(c1)OCO2)N1CCCCC1,303.15,0.01127,acetone,CC(C)=O,10.1016/j.jct.2021.106555
19820,Clc1ncnc2[nH]ccc12,303.15,0.02653,acetone,CC(C)=O,10.1016/j.jct.2021.106493
19829,Nc1nc(N)nc(NC2CC2)n1,303.15,0.0008051,acetone,CC(C)=O,10.1016/j.fluid.2018.07.024
19838,Cn1cc([N+](=O)[O-])cn1,303.15,0.048532,acetone,CC(C)=O,10.1016/j.fluid.2018.05.023
19844,CC1(C)CCC2=C(O1)c1ccccc1C(=O)C2=O,303.15,0.0216,acetone,CC(C)=O,10.1016/j.fluid.2018.05.005
19854,Cc1cc(C)c(C(=O)P(=O)(c2ccccc2)c2ccccc2)c(C)c1,303.15,0.1968,acetone,CC(C)=O,10.1016/j.fluid.2018.01.015
19861,O=C1NC(=O)C2C3C=CC(C3)C12,303.15,0.025482,acetone,CC(C)=O,10.1016/j.fluid.2019.112301
19868,COC(=O)[C@H](N)c1ccccc1.Cl,303.15,7.8e-05,acetone,CC(C)=O,10.1016/j.fluid.2016.02.020
19876,CNC[C@H](O)[C@@H](O)[C@H](O)[C@H](O)CO.Cc1c(Nc2ncccc2C(=O)O)cccc1C(F)(F)F,303.15,0.002154,acetone,CC(C)=O,10.1016/j.fluid.2015.06.026
19894,N[C@@H](C(=O)N[C@@H]1C(=O)N2C(C(=O)O)=C(Cl)CS[C@H]12)c1ccccc1.O,303.15,6.84e-05,acetone,CC(C)=O,10.1016/j.fluid.2015.01.001
19902,N=C(N)N.O=[N+]([O-])O,303.15,0.0052,acetone,CC(C)=O,10.1016/j.fluid.2014.12.037
19911,Cc1nnc(SCC2=C(C(=O)O)N3C(=O)[C@@H](NC(=O)Cn4cnnn4)[C@H]3SC2)s1,303.15,0.00019559,acetone,CC(C)=O,10.1016/j.fluid.2014.12.020
19915,O=C(O)CN(CC(=O)O)CP(=O)(O)O,303.15,0.0002729,acetone,CC(C)=O,10.1016/j.fluid.2014.08.036
19924,Cc1nc2n(c(=O)c1CCN1CCC(c3noc4cc(F)ccc34)CC1)CCCC2,303.15,0.00219,acetone,CC(C)=O,10.1016/j.fluid.2014.04.028
19934,O=C1C=CC(=O)O1,303.15,0.04528,acetone,CC(C)=O,10.1016/j.fluid.2014.01.008
19944,CCN1CCN(C(=O)N[C@@H](C(=O)N[C@@H]2C(=O)N3C(C(=O)O)=C(CSc4nnnn4C)CS[C@H]23)c2ccc(O)cc2)C(=O)C1=O,303.15,0.005135,acetone,CC(C)=O,10.1016/j.fluid.2013.11.005
19949,CC1(C)CO[P+]([O-])(Oc2c(Br)cc(Br)cc2Br)OC1,303.15,0.01709,acetone,CC(C)=O,10.1016/j.fluid.2013.09.023
19959,COC(=O)C1CC(=O)C(C(=O)OC)CC1=O,303.15,0.00548,acetone,CC(C)=O,10.1016/j.fluid.2013.06.037
19979,COC(=O)[C@@H](N)CS.Cl,303.15,0.00018,ethyl acetate,CCOC(C)=O,10.1021/acs.jced.0c00795
19990,CC1(C)NC(=O)NC1=O,303.15,0.01912,ethyl acetate,CCOC(C)=O,10.1021/acs.jced.9b01020
20001,NS(=O)(=O)Cc1noc2ccccc12,303.15,0.009801,ethyl acetate,CCOC(C)=O,10.1021/acs.jced.0c00249
20010,CC(=O)Oc1ccccc1C(=O)Nc1ncc([N+](=O)[O-])s1,303.15,0.003298,ethyl acetate,CCOC(C)=O,10.1021/acs.jced.0c00254
20018,O=Cc1cc(Br)c(O)c(Br)c1,303.15,0.01139,ethyl acetate,CCOC(C)=O,10.1021/acs.jced.0c00376
20028,CC(=O)Nc1ccc(OC(=O)c2ccccc2OC(C)=O)cc1,303.15,0.001189,ethyl acetate,CCOC(C)=O,10.1021/acs.jced.0c00301
20038,CCCSc1nc(N[C@@H]2C[C@H]2c2ccc(F)c(F)c2)c2nnn([C@@H]3C[C@H](OCCO)[C@@H](O)[C@H]3O)c2n1,303.15,0.0118,ethyl acetate,CCOC(C)=O,10.1021/acs.jced.0c00127
20047,O=C(Nc1ccccc1)c1ccccc1,303.15,0.015474,ethyl acetate,CCOC(C)=O,10.1021/acs.jced.0c00167
20055,Nc1ccc(S(N)(=O)=O)cc1,303.15,2.6e-05,ethyl acetate,CCOC(C)=O,10.1021/acs.jced.9b00411
20082,O=[N+]([O-])N=C1NCCN1Cc1ccc(Cl)nc1,303.15,0.0034,ethyl acetate,CCOC(C)=O,10.1021/acs.jced.0c00558
20094,CCOC(=O)[C@@H](C)Oc1ccc(Oc2cnc3cc(Cl)ccc3n2)cc1,303.15,0.02641,ethyl acetate,CCOC(C)=O,10.1021/acs.jced.1c00092
20102,O=C(O)COc1ccc(Cl)cc1,303.15,0.04679,ethyl acetate,CCOC(C)=O,10.1021/acs.jced.1c00153
20112,Cc1cc(Cl)cc(C(=O)O)c1N,303.15,0.009328,ethyl acetate,CCOC(C)=O,10.1021/acs.jced.1c00047
20120,Cc1c(N)cccc1C(=O)O,303.15,0.00173,ethyl acetate,CCOC(C)=O,10.1021/acs.jced.1c00109
20128,N=C(N)NCCC[C@H](N)C(=O)O.O=C1CC[C@@H](C(=O)O)N1,303.15,7.4e-05,ethyl acetate,CCOC(C)=O,10.1021/acs.jced.0c01074
20133,c1ccc(-n2c(-c3cc(-c4nc5ccccc5n4-c4ccccc4)cc(-c4nc5ccccc5n4-c4ccccc4)c3)nc3ccccc32)cc1,303.15,0.000921,ethyl acetate,CCOC(C)=O,10.1021/acs.jced.1c00163
20141,CC(=O)Nc1ccccc1[N+](=O)[O-],303.15,0.112,ethyl acetate,CCOC(C)=O,10.1021/acs.jced.1c00037
20148,CSCCC(NC(C)=O)C(=O)O,303.15,0.00641,ethyl acetate,CCOC(C)=O,10.1021/acs.jced.1c00064
20155,O=C(O)c1ccc(CO)cc1,303.15,0.00919,ethyl acetate,CCOC(C)=O,10.1021/acs.jced.1c00035
20164,Nc1cccc(S(=O)(=O)c2cccc(N)c2)c1,303.15,0.02425,ethyl acetate,CCOC(C)=O,10.1021/acs.jced.1c00062
20183,O=C(O)[C@@H]1C[C@@H](O)CN1,303.15,0.001316,ethyl acetate,CCOC(C)=O,10.1021/acs.jced.0c00794
20195,CN1COCN(Cc2cnc(Cl)s2)/C1=N/[N+](=O)[O-],303.15,0.002566,ethyl acetate,CCOC(C)=O,10.1021/acs.jced.0c00752
20203,OCC(O)COc1ccc(Cl)cc1,303.15,0.08404,ethyl acetate,CCOC(C)=O,10.1021/acs.jced.0c00900
20215,COc1cc2nc(Cl)nc(N)c2cc1OC,303.15,0.0007246,ethyl acetate,CCOC(C)=O,10.1021/acs.jced.0c00506
20220,O=C(O)[C@@H]1CSCN1,303.15,0.000158,ethyl acetate,CCOC(C)=O,10.1021/acs.jced.0c00996
20227,O=C(Nc1ccccc1)c1ccccc1O,303.15,0.0553989,ethyl acetate,CCOC(C)=O,10.1021/acs.jced.0c01078
20237,O=C(O)c1cccc(O)c1O,303.15,0.06131,ethyl acetate,CCOC(C)=O,10.1021/acs.jced.0c01032
20246,NC(=O)[C@@H]1CCCN1,303.15,0.05492,ethyl acetate,CCOC(C)=O,10.1021/acs.jced.0c00961
20268,CC(=O)O[C@]1(C(C)=O)CC[C@H]2[C@@H]3C=C(Cl)C4=CC(=O)[C@@H]5C[C@@H]5[C@]4(C)[C@H]3CC[C@@]21C,303.15,0.00055975,ethyl acetate,CCOC(C)=O,10.1021/acs.jced.0c00803
20276,c1ccc2[nH]c(-c3cscn3)nc2c1,303.15,0.0008252,ethyl acetate,CCOC(C)=O,10.1021/acs.jced.0c00724
20285,Nc1ccc(Cc2ccc(N)c(Cl)c2)cc1Cl,303.15,0.162,ethyl acetate,CCOC(C)=O,10.1021/acs.jced.0c00655
20296,c1cnc2[nH]ccc2c1,303.15,0.2653,ethyl acetate,CCOC(C)=O,10.1021/acs.jced.0c00128
20306,COc1ccccc1OCCNCC(O)COc1cccc2[nH]c3ccccc3c12,303.15,0.00294,ethyl acetate,CCOC(C)=O,10.1021/acs.jced.0c00040
20314,Nc1cccc(Cl)c1C(=O)O,303.15,0.06123,ethyl acetate,CCOC(C)=O,10.1021/acs.jced.0c00320
20321,CC1=NN(c2ccccc2)C(=O)C1,303.15,0.019784,ethyl acetate,CCOC(C)=O,10.1021/acs.jced.0c00290
20330,C#C[C@]1(O)CC[C@H]2[C@@H]3CCC4=CC(=O)CC[C@@H]4[C@H]3C(=C)C[C@@]21CC,303.15,0.043,ethyl acetate,CCOC(C)=O,10.1021/acs.jced.0c00201
20337,Cl.N=C(N=C(N)N)N1CCOCC1,303.15,0.000117,ethyl acetate,CCOC(C)=O,10.1021/acs.jced.0c00015
20344,Nc1nc(=O)[nH]cc1F,303.15,1.14e-05,ethyl acetate,CCOC(C)=O,10.1021/acs.jced.1c00206
20351,O=C(O)CNCc1ccccc1,303.15,6.7e-05,ethyl acetate,CCOC(C)=O,10.1021/acs.jced.1c00050
20359,O=C(O)c1cccc([N+](=O)[O-])c1O,303.15,0.0943,ethyl acetate,CCOC(C)=O,10.1021/acs.jced.1c00259
20366,Cl.N[C@@H](Cc1ccccc1)C(=O)OCc1ccccc1,303.15,6.3e-05,ethyl acetate,CCOC(C)=O,10.1021/acs.jced.1c00239
20375,O=C1CCc2cc(OCCCCc3nnnn3C3CCCCC3)ccc2N1,303.15,0.000861,ethyl acetate,CCOC(C)=O,10.1021/acs.jced.1c00302
20380,CCOC(=O)[C@@H]1CSCN1.Cl,303.15,0.000215,ethyl acetate,CCOC(C)=O,10.1021/acs.jced.1c00079
20385,CC(C)(C)OC(=O)N1CCC[C@H]1C(=O)O,303.15,0.039174,ethyl acetate,CCOC(C)=O,10.1021/acs.jced.1c00201
20393,O=C(O)c1cccc(C(=O)O)n1,303.15,0.002155,ethyl acetate,CCOC(C)=O,10.1021/acs.jced.1c00200
20402,CNC(=O)c1cc(Oc2ccc(N)cc2)ccn1,303.15,0.13104,ethyl acetate,CCOC(C)=O,10.1021/acs.jced.1c00232
20409,O=C(N[C@H](C(=O)O)c1ccccc1)OCc1ccccc1,303.15,0.037066,ethyl acetate,CCOC(C)=O,10.1021/acs.jced.1c00240
20426,O=C(O)c1cc([N+](=O)[O-])cc([N+](=O)[O-])c1O,303.15,0.07712,ethyl acetate,CCOC(C)=O,10.1021/acs.jced.0c00122
20435,O=C1N=c2ccccc2=N1,303.15,0.0018463,ethyl acetate,CCOC(C)=O,10.1021/acs.jced.0c00165
20446,CC(C)(c1ccc(O)cc1)c1ccc(O)cc1,303.15,0.255,ethyl acetate,CCOC(C)=O,10.1021/acs.jced.0c00166
20451,OCc1ccccc1O[C@@H]1OC(CO)[C@@H](O)[C@@H](O)C1O,303.15,4.518e-05,ethyl acetate,CCOC(C)=O,10.1021/acs.jced.0c00332
20456,OC[C@H]1O[C@@H](Oc2ccc(O)cc2)[C@H](O)[C@@H](O)[C@@H]1O,303.15,0.000166,ethyl acetate,CCOC(C)=O,10.1021/acs.jced.0c00353
20462,CC(CCc1ccccc1)NCC(O)c1ccc(O)c(C(N)=O)c1.Cl,303.15,0.000302,ethyl acetate,CCOC(C)=O,10.1021/acs.jced.1c00432
20472,COc1cc2c(cc1OC)C(=O)CC2,303.15,0.0842,ethyl acetate,CCOC(C)=O,10.1021/acs.jced.1c00040
20479,CC(=O)N1CCC[C@H]1C(=O)O,303.15,0.0096,ethyl acetate,CCOC(C)=O,10.1021/acs.jced.1c00032
20484,NC1CCSC1=O,303.15,0.000342,ethyl acetate,CCOC(C)=O,10.1021/acs.jced.0c01089
20491,CCCOC(=O)c1ccc(O)cc1,303.15,0.2469,ethyl acetate,CCOC(C)=O,10.1021/acs.jced.0c00584
20500,C=CC(=O)NC(C)(C)CS(=O)(=O)O,303.15,0.003376,ethyl acetate,CCOC(C)=O,10.1021/acs.jced.0c00578
20510,O=C(O)Cc1ccccc1[N+](=O)[O-],303.15,0.05499,ethyl acetate,CCOC(C)=O,10.1021/acs.jced.0c00543
20520,O=[N+]([O-])N(CCO)CCO.O=[N+]([O-])O.O=[N+]([O-])O,303.15,0.30974,ethyl acetate,CCOC(C)=O,10.1021/acs.jced.0c00211
20527,O=C(O)Cc1ccc([N+](=O)[O-])cc1,303.15,0.05761,ethyl acetate,CCOC(C)=O,10.1021/acs.jced.0c00182
20535,N[C@@H](CS)C(=O)O,303.15,5.8e-05,ethyl acetate,CCOC(C)=O,10.1021/acs.jced.0c00031
20542,Oc1ccc(OCc2ccccc2)cc1,303.15,0.3994,ethyl acetate,CCOC(C)=O,10.1021/acs.jced.9b00817
20547,O=C([O-])/C=C/C(=O)O.[Na+],303.15,0.0001666,ethyl acetate,CCOC(C)=O,10.1021/acs.jced.9b01203
20555,COC(=O)C1=C(C)NC(C)=C(C(=O)OCC(C)C)C1c1ccccc1[N+](=O)[O-],303.15,0.03155,ethyl acetate,CCOC(C)=O,10.1021/acs.jced.9b01036
20562,O=c1[nH]c2ccccc2c(=O)o1,303.15,0.004338,ethyl acetate,CCOC(C)=O,10.1021/acs.jced.9b01164
20570,O=C[C@H](O)[C@H](O)[C@H](O)CO,303.15,0.0016205,ethyl acetate,CCOC(C)=O,10.1021/acs.jced.0c00009
20576,Oc1c(Br)cc(Br)c2cccnc12,303.15,0.00167,ethyl acetate,CCOC(C)=O,10.1021/acs.jced.9b01190
20588,Cc1c(Br)cccc1C(=O)O,303.15,0.05244,ethyl acetate,CCOC(C)=O,10.1021/acs.jced.9b01007
20624,CC(=O)N[C@@H](CC(C)C)C(=O)O,303.15,0.002068,ethyl acetate,CCOC(C)=O,10.1021/acs.jced.9b01151
20635,CN(C)Cc1c[nH]c2ccccc12,303.15,0.03775,ethyl acetate,CCOC(C)=O,10.1021/acs.jced.9b00911
20642,CN(C)Cc1c[nH]c2ccccc12,303.15,0.0013242,ethyl acetate,CCOC(C)=O,10.1021/acs.jced.9b01063
20649,C[C@H](N)C(=O)O,303.15,0.00016,ethyl acetate,CCOC(C)=O,10.1021/acs.jced.9b00743
20664,COc1cc([N+](=O)[O-])ccc1N,303.15,0.04855,ethyl acetate,CCOC(C)=O,10.1021/acs.jced.9b00991
20674,O=Cc1ccc(O)c(Br)c1,303.15,0.02094,ethyl acetate,CCOC(C)=O,10.1021/acs.jced.9b01004
20685,CCCc1ncc(C[n+]2ccccc2C)c(N)n1.Cl.[Cl-],303.15,8.91e-05,ethyl acetate,CCOC(C)=O,10.1021/acs.jced.9b00999
20693,Nc1ccc(Cl)cc1[N+](=O)[O-],303.15,0.06844,ethyl acetate,CCOC(C)=O,10.1021/acs.jced.9b00919
20704,O=C(O)c1cccnc1Cl,303.15,0.0308,ethyl acetate,CCOC(C)=O,10.1021/acs.jced.9b00661
20711,OC[C@H]1O[C@@H](Oc2ccc(O)cc2)[C@H](O)[C@@H](O)[C@@H]1O,303.15,9.62e-05,ethyl acetate,CCOC(C)=O,10.1021/acs.jced.9b00703
20721,NC(N)=NC(N)=NCCc1ccccc1,303.15,0.003786,ethyl acetate,CCOC(C)=O,10.1021/acs.jced.9b00844