,SMILES,"T,K",Solubility,Solvent,SMILES_Solvent,Source
38079,CCCc1ncc(C[n+]2ccccc2C)c(N)n1.Cl.[Cl-],303.15,9.99e-05,"1,4-dioxane",C1COCCO1,10.1021/acs.jced.9b00999
38085,Nc1ccc(Cl)cc1[N+](=O)[O-],303.15,0.05088,"1,4-dioxane",C1COCCO1,10.1021/acs.jced.9b00919
38093,O=C(O)c1cccnc1Cl,303.15,0.01362,"1,4-dioxane",C1COCCO1,10.1021/acs.jced.9b00661
38099,NC(N)=NC(N)=NCCc1ccccc1,303.15,0.0003117,"1,4-dioxane",C1COCCO1,10.1021/acs.jced.9b00844
38107,CN1CCN(c2c(F)cc3c(=O)c(C(=O)O)cn4c3c2OCN4C)CC1,303.15,0.0001875,"1,4-dioxane",C1COCCO1,10.1021/acs.jced.9b00490
38115,Nc1c(Cl)cc([N+](=O)[O-])cc1Cl,303.15,0.03369,"1,4-dioxane",C1COCCO1,10.1021/acs.jced.9b00778
38123,CN(C)[C@@H]1C(=O)C(C(N)=O)=C(O)[C@@]2(O)C(=O)C3=C(O)c4c(O)cccc4C[C@H]3C[C@@H]12,303.15,0.002196,"1,4-dioxane",C1COCCO1,10.1021/acs.jced.9b00693
38129,N[C@H](Cc1c[nH]cn1)C(=O)O,303.15,0.01017,"1,4-dioxane",C1COCCO1,10.1021/acs.jced.9b00659
38139,O=P(O)(O)c1ccccc1,303.15,0.2431,"1,4-dioxane",C1COCCO1,10.1021/acs.jced.9b00362
38149,OCc1ccc(O[C@@H]2O[C@H](CO)[C@@H](O)[C@H](O)[C@H]2O)cc1,303.15,0.00493,"1,4-dioxane",C1COCCO1,10.1021/acs.jced.9b00286
38155,N=C(N)NC(N)=S,303.15,0.015061,"1,4-dioxane",C1COCCO1,10.1021/acs.jced.9b00458
38187,Cc1nc(N)nc(N)n1,303.15,0.001074,"1,4-dioxane",C1COCCO1,10.1021/acs.jced.9b00593
38195,Cc1cnc(C(=O)O)cn1,303.15,2.842e-05,"1,4-dioxane",C1COCCO1,10.1021/acs.jced.9b00406
38201,Nc1nnn[nH]1,303.15,0.03276,"1,4-dioxane",C1COCCO1,10.1021/acs.jced.9b00385
38211,Sc1nc2ccccc2[nH]1,303.15,0.021,"1,4-dioxane",C1COCCO1,10.1021/acs.jced.9b00190
38218,CC(=NC#N)N(C)Cc1ccc(Cl)nc1,303.15,0.1132,"1,4-dioxane",C1COCCO1,10.1021/acs.jced.9b00294
38225,CN(C)/C=C/C(=O)c1cccnc1,303.15,0.04272,"1,4-dioxane",C1COCCO1,10.1021/acs.jced.9b00047
38234,O=Cc1cc([N+](=O)[O-])ccc1O,303.15,0.03134,"1,4-dioxane",C1COCCO1,10.1021/acs.jced.9b00232
38240,CC1=NNC(=O)N(/N=C/c2cccnc2)C1,303.15,0.0007281,"1,4-dioxane",C1COCCO1,10.1021/acs.jced.9b00229
38247,N[C@H](CC(=O)O)C(=O)O,303.15,0.007825,"1,4-dioxane",C1COCCO1,10.1021/acs.jced.9b00320
38257,N#CCc1ccccc1[N+](=O)[O-],303.15,0.2568,"1,4-dioxane",C1COCCO1,10.1021/acs.jced.9b00243
38267,Nc1cc([N+](=O)[O-])ccc1Cl,303.15,0.1417,"1,4-dioxane",C1COCCO1,10.1021/acs.jced.8b00931
38273,CCOC(=O)[C@@H](C)Oc1ccc(Oc2cnc3cc(Cl)ccc3n2)cc1,303.15,0.07254,"1,4-dioxane",C1COCCO1,10.1021/acs.jced.8b01181
38279,N#CCC(N)=O,303.15,0.02265,"1,4-dioxane",C1COCCO1,10.1021/acs.jced.8b01205
38286,Cc1cccc(C(=O)O)c1N,303.15,0.1369,"1,4-dioxane",C1COCCO1,10.1021/acs.jced.8b01226
38293,O=C(O)Cc1c[nH]c2ccccc12,303.15,2.506e-05,"1,4-dioxane",C1COCCO1,10.1021/acs.jced.8b01265
38301,CC(=O)N(CC(O)CO)c1c(I)c(C(=O)NCC(O)CO)c(I)c(C(=O)NCC(O)CO)c1I,303.15,0.0001002,"1,4-dioxane",C1COCCO1,10.1021/acs.jced.8b01101
38309,COC(=O)Nc1nc2ccc(C(=O)c3ccc(F)cc3)cc2[nH]1,303.15,0.00014,"1,4-dioxane",C1COCCO1,10.1021/acs.jced.8b01126
38319,Nc1nc(Cl)c2[nH]cnc2n1,303.15,0.0001349,"1,4-dioxane",C1COCCO1,10.1021/acs.jced.8b01014
38329,COc1c(N2CCNC(C)C2)c(F)cc2c(=O)c(C(=O)O)cn(C3CC3)c12,303.15,0.001492,"1,4-dioxane",C1COCCO1,10.1021/acs.jced.8b00902
38336,N#CCc1ccc([N+](=O)[O-])cc1,303.15,0.0888,"1,4-dioxane",C1COCCO1,10.1021/acs.jced.8b00811
38346,CC[C@@H](C(N)=O)N1CCCC1=O,303.15,0.01403,"1,4-dioxane",C1COCCO1,10.1021/acs.jced.8b00720
38355,CC1(C)COP(=O)(C(Nc2ccccc2)c2ccccc2)OC1,303.15,0.01026,"1,4-dioxane",C1COCCO1,10.1021/acs.jced.7b00585
38364,CS(=O)(=O)c1ccc([C@@H](O)[C@@H](CO)NC(=O)C(Cl)Cl)cc1,303.15,0.0009734,"1,4-dioxane",C1COCCO1,10.1021/acs.jced.7b00542
38383,Nc1nc(Cl)cc(Cl)n1,303.15,0.01819,"1,4-dioxane",C1COCCO1,10.1021/acs.jced.8b00292
38393,On1nnc2ccccc21,303.15,0.02466,"1,4-dioxane",C1COCCO1,10.1021/acs.jced.7b00316
38413,COc1ccc(CN2CCNCC2)c(OC)c1OC.Cl,303.15,8.25e-05,"1,4-dioxane",C1COCCO1,10.1021/acs.jced.8b00235
38422,O=c1nc[nH]c2[nH]ncc12,303.15,7.028e-05,"1,4-dioxane",C1COCCO1,10.1021/acs.jced.8b00430
38433,Nc1ccc(S(=O)(=O)Nc2ccc(Cl)nn2)cc1,303.15,0.1433,"1,4-dioxane",C1COCCO1,10.1021/acs.jced.7b01134
38444,O=C1NC23NC(=O)NC2(N1)C(=O)NC3=O,303.15,0.0006014,"1,4-dioxane",C1COCCO1,10.1021/acs.jced.6b00349
38454,O=C1NC(=O)c2cc([N+](=O)[O-])ccc21,303.15,0.03181,"1,4-dioxane",C1COCCO1,10.1021/acs.jced.6b00230
38478,Nc1cc(Cl)nnc1Cl,303.15,0.0055632,"1,4-dioxane",C1COCCO1,10.1021/je500286x
38485,O=C1Nc2ccccc2C1=O,303.15,0.021824,"1,4-dioxane",C1COCCO1,10.1021/je500396b
38493,OC(Cn1cncn1)(Cn1cncn1)c1ccc(F)cc1F,303.15,0.0165,"1,4-dioxane",C1COCCO1,10.1021/je4010257
38515,O=C(O)c1cccc(Cl)c1C(=O)c1ccccc1,303.15,0.03396,"1,4-dioxane",C1COCCO1,10.1021/je400246s
38525,O=C1c2ccccc2C(=O)c2c(Cl)cccc21,303.15,0.006911,"1,4-dioxane",C1COCCO1,10.1021/je400246s
38582,COc1ccc(C(=O)/C=C/c2ccc(-c3cccc([N+](=O)[O-])c3)o2)cc1,303.15,0.007334,"1,4-dioxane",C1COCCO1,10.1021/je900370q
38587,O=C(/C=C/c1ccc(-c2cccc([N+](=O)[O-])c2)o1)c1ccc([N+](=O)[O-])cc1,303.15,0.002324,"1,4-dioxane",C1COCCO1,10.1021/je900370q
38592,O=C(/C=C/c1ccc(-c2cccc([N+](=O)[O-])c2)o1)c1cccc([N+](=O)[O-])c1,303.15,0.006009,"1,4-dioxane",C1COCCO1,10.1021/je900370q
38597,Nc1ccc(C(=O)/C=C/c2ccc(-c3cccc([N+](=O)[O-])c3)o2)cc1,303.15,0.002484,"1,4-dioxane",C1COCCO1,10.1021/je900370q
38602,O=C(/C=C/c1ccc(-c2cccc([N+](=O)[O-])c2)o1)c1ccc(Cl)cc1,303.15,0.002721,"1,4-dioxane",C1COCCO1,10.1021/je900370q
38607,O=C(/C=C/c1ccc(-c2cccc([N+](=O)[O-])c2)o1)c1ccc(Br)cc1,303.15,0.004913,"1,4-dioxane",C1COCCO1,10.1021/je900370q
38612,O=C(/C=C/c1ccc(-c2cccc([N+](=O)[O-])c2)o1)c1ccccc1,303.15,0.005604,"1,4-dioxane",C1COCCO1,10.1021/je900370q
38617,O=C(/C=C/c1ccc(-c2cccc([N+](=O)[O-])c2)o1)c1ccc(O)cc1,303.15,0.005801,"1,4-dioxane",C1COCCO1,10.1021/je900370q
38622,O=C(/C=C/c1ccc(-c2cccc([N+](=O)[O-])c2)o1)CO,303.15,0.007072,"1,4-dioxane",C1COCCO1,10.1021/je900370q
38627,O=C(/C=C/c1ccc(-c2cccc([N+](=O)[O-])c2)o1)c1ccc2ccc(=O)oc2c1,303.15,0.006234,"1,4-dioxane",C1COCCO1,10.1021/je900370q
38635,O=C1OC(=O)c2c(Cl)cccc21,303.15,0.3281,"1,4-dioxane",C1COCCO1,10.1021/je800869g
38644,O=C1OC(=O)c2cc(Cl)ccc21,303.15,0.1664,"1,4-dioxane",C1COCCO1,10.1021/je800869g
38684,O=C1OC(=O)C2C3C=CC(O3)C12,303.15,0.042065,"1,4-dioxane",C1COCCO1,10.1021/acs.jced.0c00569
38692,CC(C(=O)O)c1ccc2c(c1)CC(=O)c1ccccc1S2,303.15,0.12698,"1,4-dioxane",C1COCCO1,10.1021/acs.jced.9b01180
38700,CC(=O)Oc1ccc(C(c2ccc(OC(C)=O)cc2)c2ccccn2)cc1,303.15,0.003429,"1,4-dioxane",C1COCCO1,10.1021/acs.jced.9b00728
38706,CS(=O)(=O)c1ccc([C@@H](O)[C@@H](CO)NC(=O)C(Cl)Cl)cc1,303.15,0.0009734,"1,4-dioxane",C1COCCO1,10.1021/acs.jced.8b00179
38713,CC(=O)Nc1ccc(C(=O)O)cc1,303.15,0.003943,"1,4-dioxane",C1COCCO1,10.1016/j.jct.2021.106478
38722,O=c1cc(CO)occ1O,303.15,0.01213,"1,4-dioxane",C1COCCO1,10.1016/j.jct.2020.106280
38729,N#Cc1ccc2c(c1)OCO2,303.15,0.2559,"1,4-dioxane",C1COCCO1,10.1016/j.jct.2020.106191
38737,CN1COCN(Cc2cnc(Cl)s2)C1=N[N+](=O)[O-],303.15,0.005226,"1,4-dioxane",C1COCCO1,10.1016/j.jct.2020.106116
38745,COC(=O)Nc1nc2ccc(Sc3ccccc3)cc2[nH]1,303.15,0.001662,"1,4-dioxane",C1COCCO1,10.1016/j.jct.2019.07.018
38751,Cc1c(C(N)=O)cc([N+](=O)[O-])cc1[N+](=O)[O-],303.15,0.05904,"1,4-dioxane",C1COCCO1,10.1016/j.jct.2019.01.013
38765,c1ccc(-c2nnn[nH]2)cc1,303.15,0.01376,"1,4-dioxane",C1COCCO1,10.1016/j.jct.2017.04.019
38779,S=c1[nH]c2ccccc2s1,303.15,0.0698,"1,4-dioxane",C1COCCO1,10.1016/j.jct.2017.05.013
38789,Clc1ccc(COC(Cn2ccnc2)c2ccc(Cl)cc2Cl)cc1.O=[N+]([O-])O,303.15,0.0004819,"1,4-dioxane",C1COCCO1,10.1016/j.jct.2017.03.038
38801,Cc1ccc(N)c([N+](=O)[O-])c1,303.15,0.09858,"1,4-dioxane",C1COCCO1,10.1016/j.jct.2017.02.008
38813,Nc1ccc(N)c([N+](=O)[O-])c1,303.15,0.06548,"1,4-dioxane",C1COCCO1,10.1016/j.jct.2017.01.006
38828,Nc1ccc([N+](=O)[O-])cc1N,303.15,0.0112,"1,4-dioxane",C1COCCO1,10.1016/j.jct.2016.11.014
38843,Nc1cc(Cl)ccc1C(=O)O,303.15,0.032,"1,4-dioxane",C1COCCO1,10.1016/j.jct.2016.11.019
38856,Cn1cnc([N+](=O)[O-])c1Cl,303.15,0.01509,"1,4-dioxane",C1COCCO1,10.1016/j.jct.2016.10.006
38867,COc1cc(Cl)nc(N)n1,303.15,0.04218,"1,4-dioxane",C1COCCO1,10.1016/j.jct.2016.10.020
38875,O=C(NC[C@H]1CN(c2ccc(N3CCOCC3=O)cc2)C(=O)O1)c1ccc(Cl)s1,303.15,0.0002244,"1,4-dioxane",C1COCCO1,10.1016/j.jct.2016.09.036
38888,Nc1nnc[nH]1,303.15,0.006401,"1,4-dioxane",C1COCCO1,10.1016/j.jct.2016.09.033
38898,C[C@@H]1O[C@@H](OC[C@H]2O[C@@H](Oc3c(-c4ccc(OCCO)c(OCCO)c4)oc4cc(OCCO)cc(O)c4c3=O)[C@H](O)[C@@H](O)[C@@H]2O)[C@H](O)[C@H](O)[C@H]1O,303.15,0.000865,"1,4-dioxane",C1COCCO1,10.1016/j.jct.2016.09.015
38911,CC1=NN(c2ccc(C)cc2)C(=O)C1,303.15,0.06381,"1,4-dioxane",C1COCCO1,10.1016/j.jct.2016.08.007
38924,Cc1cccc([N+](=O)[O-])c1N,303.15,0.2765,"1,4-dioxane",C1COCCO1,10.1016/j.jct.2016.05.027
38939,O=S(=O)(c1ccc(O)cc1)c1ccccc1O,303.15,0.05572,"1,4-dioxane",C1COCCO1,10.1016/j.jct.2016.07.001
38952,Cc1cc(C(=O)O)ccc1[N+](=O)[O-],303.15,0.05999,"1,4-dioxane",C1COCCO1,10.1016/j.jct.2016.07.023
38969,CC(C)(C)[C@H](O)[C@H](Cc1ccc(Cl)cc1)n1cncn1,303.15,0.03806,"1,4-dioxane",C1COCCO1,10.1016/j.jct.2016.09.038
38981,Nc1ccc(N2CCOCC2=O)cc1,303.15,0.01249,"1,4-dioxane",C1COCCO1,10.1016/j.jct.2016.01.022
38994,O=C1c2cccc(Cl)c2C(=O)N1c1ccccc1,303.15,0.01337,"1,4-dioxane",C1COCCO1,10.1016/j.jct.2016.01.003
39006,O=C1NC(=O)C2C3C=CC(C3)C12,303.15,0.057602,"1,4-dioxane",C1COCCO1,10.1016/j.fluid.2019.112301
39022,CC1(C)NC(=O)NC1=O,303.15,0.02786,water,O,10.1021/acs.jced.9b01020
39032,O=Cc1cc(Br)c(O)c(Br)c1,303.15,0.0001671,water,O,10.1021/acs.jced.0c00376
39042,Nc1ccc(S(N)(=O)=O)cc1,303.15,0.001056,water,O,10.1021/acs.jced.9b00411
39051,O=C1CC[C@@H](C(=O)N2CSC[C@H]2C(=O)O)N1,303.15,0.003132,water,O,10.1021/acs.jced.0c00616
39059,Cc1c(N)cccc1C(=O)O,303.15,0.0006688,water,O,10.1021/acs.jced.1c00109
39067,N=C(N)NCCC[C@H](N)C(=O)O.O=C1CC[C@@H](C(=O)O)N1,303.15,0.1779,water,O,10.1021/acs.jced.0c01074
39075,CC(=O)Nc1ccccc1[N+](=O)[O-],303.15,0.00032,water,O,10.1021/acs.jced.1c00037
39082,CSCCC(NC(C)=O)C(=O)O,303.15,0.01362,water,O,10.1021/acs.jced.1c00064
39089,O=C(O)c1ccc(CO)cc1,303.15,0.0005317,water,O,10.1021/acs.jced.1c00035
39098,Nc1cccc(S(=O)(=O)c2cccc(N)c2)c1,303.15,4.294e-05,water,O,10.1021/acs.jced.1c00062
39117,O=C(O)[C@@H]1C[C@@H](O)CN1,303.15,0.053031,water,O,10.1021/acs.jced.0c00794
39128,O=Cc1cc(C=O)cc(C=O)c1,303.15,0.000132,water,O,10.1021/acs.jced.0c00776
39135,O=C(O)[C@@H]1CSCN1,303.15,0.005019,water,O,10.1021/acs.jced.0c00996
39144,CC(=O)O[C@]1(C(C)=O)CC[C@H]2[C@@H]3C=C(Cl)C4=CC(=O)[C@@H]5C[C@@H]5[C@]4(C)[C@H]3CC[C@@]21C,303.15,3.6742e-06,water,O,10.1021/acs.jced.0c00803
39152,Nc1ccc(Cc2ccc(N)c(Cl)c2)cc1Cl,303.15,0.000342,water,O,10.1021/acs.jced.0c00655
39163,COc1ccccc1OCCNCC(O)COc1cccc2[nH]c3ccccc3c12,303.15,0.04684,water,O,10.1021/acs.jced.0c00040
39171,Nc1cccc(Cl)c1C(=O)O,303.15,0.001396,water,O,10.1021/acs.jced.0c00320
39178,CC1=NN(c2ccccc2)C(=O)C1,303.15,0.000174,water,O,10.1021/acs.jced.0c00290
39187,C#C[C@]1(O)CC[C@H]2[C@@H]3CCC4=CC(=O)CC[C@@H]4[C@H]3C(=C)C[C@@]21CC,303.15,3.65e-05,water,O,10.1021/acs.jced.0c00201
39198,Cl.N=C(N=C(N)N)N1CCOCC1,303.15,0.085322,water,O,10.1021/acs.jced.0c00015
39203,O=C(O)CNCc1ccccc1,303.15,0.013976,water,O,10.1021/acs.jced.1c00050
39211,O=C(O)c1cccc([N+](=O)[O-])c1O,303.15,0.0002631,water,O,10.1021/acs.jced.1c00259
39218,Cl.N[C@@H](Cc1ccccc1)C(=O)OCc1ccccc1,303.15,0.001499,water,O,10.1021/acs.jced.1c00239
39223,CCOC(=O)[C@@H]1CSCN1.Cl,303.15,0.123918,water,O,10.1021/acs.jced.1c00079
39228,CC(C)(C)OC(=O)N1CCC[C@H]1C(=O)O,303.15,0.000593,water,O,10.1021/acs.jced.1c00201
39236,CNC(=O)c1cc(Oc2ccc(N)cc2)ccn1,303.15,0.000598,water,O,10.1021/acs.jced.1c00232
39245,Nc1cccc(C(=O)O)c1,303.15,0.0009764,water,O,10.1021/acs.jced.1c00247
39252,O=C(N[C@H](C(=O)O)c1ccccc1)OCc1ccccc1,303.15,4.5e-05,water,O,10.1021/acs.jced.1c00240
39260,O=C(O)c1cc([N+](=O)[O-])cc([N+](=O)[O-])c1O,303.15,0.001711,water,O,10.1021/acs.jced.0c00122
39267,OCc1ccccc1O[C@@H]1OC(CO)[C@@H](O)[C@@H](O)C1O,303.15,0.00333192,water,O,10.1021/acs.jced.0c00332
39272,OC[C@H]1O[C@@H](Oc2ccc(O)cc2)[C@H](O)[C@@H](O)[C@@H]1O,303.15,0.010771,water,O,10.1021/acs.jced.0c00353
39278,CC(CCc1ccccc1)NCC(O)c1ccc(O)c(C(N)=O)c1.Cl,303.15,0.00145,water,O,10.1021/acs.jced.1c00432
39288,O[C@H]1[C@H](O)[C@@H](O)[C@H](O)[C@@H](O)[C@H]1O,303.15,0.01888506,water,O,10.1021/acs.jced.0c01067
39297,CC(=O)NCC(=O)O,303.15,0.007752,water,O,10.1021/acs.jced.0c00983
39306,CC(=O)N1CCC[C@H]1C(=O)O,303.15,0.02694,water,O,10.1021/acs.jced.1c00032
39313,CCCOC(=O)c1ccc(O)cc1,303.15,3.86e-05,water,O,10.1021/acs.jced.0c00584
39322,O=C(O)Cc1ccccc1[N+](=O)[O-],303.15,0.000185,water,O,10.1021/acs.jced.0c00543
39332,O=C(O)Cc1ccc([N+](=O)[O-])cc1,303.15,0.0003365,water,O,10.1021/acs.jced.0c00182
39340,N[C@@H](CS)C(=O)O,303.15,0.029097,water,O,10.1021/acs.jced.0c00031
39347,Oc1ccc(OCc2ccccc2)cc1,303.15,1.7e-05,water,O,10.1021/acs.jced.9b00817
39352,O=C([O-])/C=C/C(=O)O.[Na+],303.15,0.0113691,water,O,10.1021/acs.jced.9b01203
39360,COC(=O)C1=C(C)NC(C)=C(C(=O)OCC(C)C)C1c1ccccc1[N+](=O)[O-],303.15,1.5e-05,water,O,10.1021/acs.jced.9b01036
39369,Cc1c(Br)cccc1C(=O)O,303.15,0.00485,water,O,10.1021/acs.jced.9b01007
39377,C[C@H](N)C(=O)O,303.15,0.034189,water,O,10.1021/acs.jced.9b00743
39385,COc1cc([N+](=O)[O-])ccc1N,303.15,1.7e-05,water,O,10.1021/acs.jced.9b00991
39395,O=Cc1ccc(O)c(Br)c1,303.15,0.0001959,water,O,10.1021/acs.jced.9b01004
39405,Nc1ccc(Cl)cc1[N+](=O)[O-],303.15,3.3e-05,water,O,10.1021/acs.jced.9b00919
39412,O=S(=O)([O-])c1cccc2c(S(=O)(=O)[O-])cccc12.[Na+].[Na+],303.15,0.0078429,water,O,10.1021/acs.jced.9b00029
39421,O=C(O)c1cccnc1Cl,303.15,0.000191,water,O,10.1021/acs.jced.9b00661
39426,O=C(O)[C@@H]1CCCN1,303.15,0.224323,water,O,10.1021/acs.jced.9b00802
39434,NC(N)=NC(N)=NCCc1ccccc1,303.15,0.001071,water,O,10.1021/acs.jced.9b00844
39444,Nc1c(Cl)cc([N+](=O)[O-])cc1Cl,303.15,8.31e-06,water,O,10.1021/acs.jced.9b00778
39453,NCCCCCC(=O)O,303.15,0.144929,water,O,10.1021/acs.jced.9b00543
39460,N[C@H](Cc1c[nH]cn1)C(=O)O,303.15,0.005564,water,O,10.1021/acs.jced.9b00659
39472,O=[N+]([O-])c1ncccc1O,303.15,0.00393,water,O,10.1021/acs.jced.9b00564
39480,O=C(O)C=CC(=O)O.OCCOCCN1CCN(C2=Nc3ccccc3Sc3ccccc32)CC1.OCCOCCN1CCN(C2=Nc3ccccc3Sc3ccccc32)CC1,303.15,7.99e-05,water,O,10.1021/acs.jced.7b00518
39490,O=C1C=CC(=O)N1c1ccccc1Br,303.15,0.0005433,water,O,10.1021/acs.jced.9b00560
39501,C[C@]12CCC3=C4CCC(=O)C=C4CC[C@H]3[C@@H]1CC[C@@]2(O)CC#N,303.15,9.62e-06,water,O,10.1021/acs.jced.9b00696
39510,N[C@@H](CO)C(=O)O,303.15,0.07166,water,O,10.1021/acs.jced.9b00460
39521,Cc1nc(N)nc(N)n1,303.15,0.000285,water,O,10.1021/acs.jced.9b00593
39541,N[C@@H](Cc1c[nH]c2ccccc12)C(=O)O,303.15,0.00154,water,O,10.1021/acs.jced.9b00562
39554,Cc1cnc(C(=O)O)cn1,303.15,7.7e-06,water,O,10.1021/acs.jced.9b00406
39558,NNC(=O)NN.O=[N+]([O-])NC1=NC(C2N=NC(N[N+](=O)[O-])=N2)N=N1,303.15,3.07e-05,water,O,10.1021/acs.jced.9b00275
39570,Cc1c(C(=O)O)cc([N+](=O)[O-])cc1[N+](=O)[O-],303.15,4.549e-05,water,O,10.1021/acs.jced.9b00497
39582,CC(=NC#N)N(C)Cc1ccc(Cl)nc1,303.15,0.00045,water,O,10.1021/acs.jced.9b00294
39591,Cc1n[nH]c2cc([N+](=O)[O-])ccc12,303.15,8.01e-05,water,O,10.1021/acs.jced.8b01256
39602,N#Cc1cccc([N+](=O)[O-])c1C#N,303.15,0.0001458,water,O,10.1021/acs.jced.8b01250
39613,O=Cc1cc([N+](=O)[O-])ccc1O,303.15,0.0001098,water,O,10.1021/acs.jced.9b00232
39620,NS(=O)(=O)c1cc2c(cc1Cl)NCNS2(=O)=O,303.15,5.2e-05,water,O,10.1021/acs.jced.9b00220
39628,N[C@H](CC(=O)O)C(=O)O,303.15,0.0008355,water,O,10.1021/acs.jced.9b00320
39640,N#CCc1ccccc1[N+](=O)[O-],303.15,0.000102,water,O,10.1021/acs.jced.9b00243
39652,N#CCC(N)=O,303.15,0.05191,water,O,10.1021/acs.jced.8b01205
39660,NC(=O)c1ccc([N+](=O)[O-])cc1,303.15,0.000754,water,O,10.1021/acs.jced.9b00065
39670,NC(=O)c1ccc(N)cc1,303.15,0.001837,water,O,10.1021/acs.jced.8b01144
39681,CC(C)N1C(=O)N(c2ccccc2)CSC1=NC(C)(C)C,303.15,8.541e-05,water,O,10.1021/acs.jced.8b01099
39689,COC(=O)Nc1nc2ccc(C(=O)c3ccc(F)cc3)cc2[nH]1,303.15,2.602e-07,water,O,10.1021/acs.jced.8b01126
39701,Nc1nc(Cl)c2[nH]cnc2n1,303.15,1.68e-05,water,O,10.1021/acs.jced.8b01014
39713,N#CCc1ccc([N+](=O)[O-])cc1,303.15,4.273e-05,water,O,10.1021/acs.jced.8b00811
39724,NNC(=O)c1ccncc1,303.15,0.024012,water,O,10.1021/acs.jced.8b00785
39734,CS(=O)(=O)c1ccc([C@@H](O)[C@@H](CO)NC(=O)C(Cl)Cl)cc1,303.15,0.0001325,water,O,10.1021/acs.jced.7b00542
39766,O=c1nc[nH]c2[nH]ncc12,303.15,3.831e-05,water,O,10.1021/acs.jced.8b00430
39777,COc1ccc(CC(=O)O)cc1,303.15,0.0057,water,O,10.1021/acs.jced.8b00271
39788,O=C(O)Cc1ccccc1Cl,303.15,0.000645,water,O,10.1021/acs.jced.8b00139
39803,Nc1ccc(S(=O)(=O)Nc2ccc(Cl)nn2)cc1,303.15,7.528e-05,water,O,10.1021/acs.jced.7b01134
39824,O=C(c1ccccc1)c1ccccc1,303.15,0.0148,water,O,10.1021/acs.jced.8b00196
39833,O=C1O[C@H]([C@@H](O)CO)C(O)=C1O.[Na],303.15,0.0723,water,O,10.1021/acs.jced.7b00846
39840,O=C(O)CS.[Na],303.15,0.1765,water,O,10.1021/acs.jced.7b00245
39854,O=C(/C=C/c1ccc(O)c(O)c1)O[C@H](Cc1ccc(O)c(O)c1)C(=O)O,303.15,0.01652,water,O,10.1021/acs.jced.6b00008
39869,O=C1NC23NC(=O)NC2(N1)C(=O)NC3=O,303.15,0.0002234,water,O,10.1021/acs.jced.6b00349
39895,[NH3+]O.[NH3+]O.[O-]n1nnnc1-c1nnnn1[O-],303.15,3.289e-05,water,O,10.1021/acs.jced.6b00009
39901,OC[C@H](O)[C@@H](O)[C@H](O[C@H]1O[C@H](CO)[C@@H](O)[C@H](O)[C@H]1O)[C@H](O)CO,303.15,0.067109,water,O,10.1021/acs.jced.5b00565
39929,COc1cc(C(=O)O)ccc1O,303.15,0.000205,water,O,10.1021/acs.jced.5b00619
39954,CN1C(C(=O)Nc2ccccn2)=C(O)c2sccc2S1(=O)=O,303.15,5.07e-06,water,O,10.1021/acs.jced.5b00382
39960,C=CC(=O)NC(C)(C)C,303.15,0.001107,water,O,10.1021/acs.jced.5b00135
39976,C=C1C[C@]23C[C@H]1CC[C@H]2[C@@]12CC[C@H](O)[C@@](C)(C(=O)O1)[C@H]2[C@@H]3C(=O)O,303.15,3.4e-05,water,O,10.1021/acs.jced.5b00190
39985,CCOC(=O)C1(c2ccccc2)CCN(CCC(C#N)(c2ccccc2)c2ccccc2)CC1,303.15,1.45e-05,water,O,10.1021/je5010033
39997,CC1(C)COC(=O)[C@@H]1O,303.15,0.3137,water,O,10.1021/je500996n
40051,O=C(O)CCCC[C@@H]1SC[C@@H]2NC(=O)N[C@H]12,303.15,8.18e-06,water,O,10.1021/je500787x
40074,CCN1CCN(c2cc3c(cc2F)c(=O)c(C(=O)O)cn3C2CC2)CC1,303.15,1.15e-05,water,O,10.1021/je5002158
40082,COc1ccc([C@@H]2CC(=O)c3c(O)cc(O[C@@H]4O[C@H](CO[C@@H]5O[C@@H](C)[C@H](O)[C@@H](O)[C@H]5O)[C@@H](O)[C@H](O)[C@H]4O)cc3O2)cc1O,303.15,1.52e-07,water,O,10.1021/je500206w
40120,CN1CC(=O)N2C(CC3c4ccccc4NC3C2C2CCC3OCOC3C2)C1=O,303.15,7.59e-07,water,O,10.1021/je400982r
40130,O=C(O)c1cc2ccccc2[nH]1,303.15,7.03e-05,water,O,10.1021/je400813d
40159,O=[N+]([O-])c1nonc1-c1no[n+]([O-])c1-c1nonc1[N+](=O)[O-],303.15,2.08252e-06,water,O,10.1021/je4005992
40180,CC1=C(C(=O)O)N2C(=O)[C@@H](NC(=O)[C@H](N)C3=CCC=CC3)[C@H]2SC1,303.15,0.00118,water,O,10.1021/je400218d
40280,Nc1cc(N2CCCCC2)nc(N)[n+]1[O-],303.15,0.000258,water,O,10.1021/je1012839
40322,C[C@@H]1[C@H]2C3=CC[C@@H]4[C@@]5(C)C[C@@H](O)[C@H](O)[C@@](C)(CO)[C@@H]5CC[C@@]4(C)[C@]3(C)CC[C@@]2(C(=O)O[C@@H]2O[C@H](CO[C@@H]3O[C@H](CO)[C@@H](O[C@@H]4O[C@@H](C)[C@H](O)[C@@H](O)[C@H]4O)[C@H](O)[C@H]3O)[C@@H](O)[C@H](O)[C@H]2O)CC[C@H]1C,303.15,2.1e-06,water,O,10.1021/je101208p
40340,O=C(O)CC(O)(CC(=O)O)C(=O)O,303.15,0.1445,water,O,10.1021/je101167z
40402,N[C@@H](Cc1ccc([N+](=O)[O-])cc1[N+](=O)[O-])C(=O)O,303.15,5.124e-05,water,O,10.1021/je100352r
40441,Oc1cc(O)c2cc(O)c(-c3cc(O)c(O)c(O)c3)[o+]c2c1,303.15,6.387e-07,water,O,10.1021/je900851k
40453,Cc1ccc[n+](CCCC[n+]2cccc(C)c2)c1.F[P-](F)(F)(F)(F)F.F[P-](F)(F)(F)(F)F,303.15,8e-06,water,O,10.1021/je9010954
40466,CN/C(=C\[N+](=O)[O-])NCCSCc1csc(CN(C)C)n1,303.15,0.03253,water,O,10.1021/je1000928
40479,OC[C@H]1O[C@H](O[C@]2(CCl)O[C@H](CCl)[C@@H](O)[C@@H]2O)[C@H](O)[C@@H](O)[C@H]1Cl,303.15,0.01642,water,O,10.1021/je9008427
40501,CC1COc2c(N3CCN(C)CC3)c(F)cc3c(=O)c(C(=O)O)cn1c23,303.15,0.000281,water,O,10.1021/je900540d
40511,CC(N)=O,303.15,0.4775,water,O,10.1021/je9007475
40523,CCC(N)=O,303.15,0.3153,water,O,10.1021/je9007475
40535,CCCC(N)=O,303.15,0.0575,water,O,10.1021/je9007475
40568,Oc1cc(O)c2cc1Cc1cc(c(O)cc1O)Cc1cc(c(O)cc1O)Cc1cc(c(O)cc1O)C2,303.15,7.16e-06,water,O,10.1021/je9005097
40687,CCc1occc(=O)c1O,303.15,0.0027,water,O,10.1021/je9000729
40698,O=C(O)c1cccc(Cl)c1C(=O)O,303.15,0.0031473,water,O,10.1021/je800869g
40709,O=C(O)c1ccc(Cl)cc1C(=O)O,303.15,0.1451,water,O,10.1021/je800869g
40752,NC(N)=S,303.15,0.04742,water,O,10.1021/je800796h
40776,CC[n+]1ccccc1.F[P-](F)(F)(F)(F)F,303.15,0.001301,water,O,10.1021/je800618x
40795,N[C@@H](C(=O)O)c1ccc(O)cc1,303.15,0.002237,water,O,10.1021/je800611r