,SMILES,"T,K",Solubility,Solvent,SMILES_Solvent,Source
33148,c1ccc(-c2nnn[nH]2)cc1,303.15,7.624e-05,toluene,Cc1ccccc1,10.1016/j.jct.2017.04.019
33167,S=c1[nH]c2ccccc2s1,303.15,0.004272,toluene,Cc1ccccc1,10.1016/j.jct.2017.05.013
33182,Cc1cc(C)[nH]n1,303.15,0.09792,toluene,Cc1ccccc1,10.1016/j.jct.2017.02.011
33197,Cc1ccc(N)c([N+](=O)[O-])c1,303.15,0.0312,toluene,Cc1ccccc1,10.1016/j.jct.2017.02.008
33217,Nc1ccc(N)c([N+](=O)[O-])c1,303.15,0.0009526,toluene,Cc1ccccc1,10.1016/j.jct.2017.01.006
33234,CC(C)c1ncc[nH]1,303.15,0.03552,toluene,Cc1ccccc1,10.1016/j.jct.2016.12.028
33247,Nc1ccc([N+](=O)[O-])cc1N,303.15,0.0001008,toluene,Cc1ccccc1,10.1016/j.jct.2016.11.014
33264,Nc1cc(Cl)ccc1C(=O)O,303.15,0.0004781,toluene,Cc1ccccc1,10.1016/j.jct.2016.11.019
33279,CC(C)(C)C(O)(CCc1ccc(Cl)cc1)Cn1cncn1,303.15,0.07116,toluene,Cc1ccccc1,10.1016/j.jct.2016.11.032
33294,Cc1cc([N+](=O)[O-])ccc1N,303.15,0.004796,toluene,Cc1ccccc1,10.1016/j.jct.2016.10.037
33311,O=Cc1cccc([N+](=O)[O-])c1,303.15,0.4278,toluene,Cc1ccccc1,10.1016/j.jct.2016.10.040
33320,Cn1cnc([N+](=O)[O-])c1Cl,303.15,0.0039,toluene,Cc1ccccc1,10.1016/j.jct.2016.10.006
33337,CC(C)C(=O)OCC(=O)[C@@]12O[C@H](C3CCCCC3)O[C@@H]1C[C@H]1[C@@H]3CCC4=CC(=O)C=C[C@]4(C)[C@H]3[C@@H](O)C[C@@]12C,303.15,0.0579,toluene,Cc1ccccc1,10.1016/j.jct.2016.10.014
33348,COc1cc(Cl)nc(N)n1,303.15,0.003005,toluene,Cc1ccccc1,10.1016/j.jct.2016.10.020
33359,O=Cc1ccc([N+](=O)[O-])cc1,303.15,0.06568,toluene,Cc1ccccc1,10.1016/j.jct.2016.09.012
33372,CC1=NN(c2ccc(C)cc2)C(=O)C1,303.15,0.02505,toluene,Cc1ccccc1,10.1016/j.jct.2016.08.007
33387,O=[N+]([O-])c1ccc(O)c2ncccc12,303.15,0.005184,toluene,Cc1ccccc1,10.1016/j.jct.2016.04.018
33400,O=C1NC(=O)c2ccccc21,303.15,0.0006936,toluene,Cc1ccccc1,10.1016/j.jct.2015.10.024
33417,Cc1cccc([N+](=O)[O-])c1N,303.15,0.07188,toluene,Cc1ccccc1,10.1016/j.jct.2016.05.027
33430,Cc1cc(C(=O)O)ccc1[N+](=O)[O-],303.15,0.02428,toluene,Cc1ccccc1,10.1016/j.jct.2016.07.023
33449,N=C(Nc1ccccc1)Nc1ccccc1,303.15,0.005278,toluene,Cc1ccccc1,10.1016/j.jct.2016.03.011
33459,C#CC(C)(C)NC(=O)c1cc(Cl)cc(Cl)c1,303.15,0.00593,toluene,Cc1ccccc1,10.1016/j.jct.2016.03.039
33476,O=[N+]([O-])c1cccc2cccc([N+](=O)[O-])c12,303.15,0.003821,toluene,Cc1ccccc1,10.1016/j.jct.2015.07.010
33489,CC(C)(C)[C@H](O)[C@H](Cc1ccc(Cl)cc1)n1cncn1,303.15,0.05331,toluene,Cc1ccccc1,10.1016/j.jct.2016.09.038
33502,CCOC(=O)Cc1c(C(=O)OCC)sc(N)c1C#N,303.15,0.001711,toluene,Cc1ccccc1,10.1016/j.jct.2015.11.025
33511,Clc1ncnc2[nH]ccc12,303.15,0.00225,toluene,Cc1ccccc1,10.1016/j.jct.2021.106493
33520,Cn1cc([N+](=O)[O-])cn1,303.15,0.013156,toluene,Cc1ccccc1,10.1016/j.fluid.2018.05.023
33545,COC(=O)[C@H](N)c1ccccc1.Cl,303.15,2.3e-05,toluene,Cc1ccccc1,10.1016/j.fluid.2016.02.020
33553,Cc1cc(C)cc(OCC2CNC(=O)O2)c1,303.15,0.0028875,toluene,Cc1ccccc1,10.1016/j.fluid.2015.09.013
33560,O=C(O)CN(CC(=O)O)CP(=O)(O)O,303.15,0.0004268,toluene,Cc1ccccc1,10.1016/j.fluid.2014.08.036
33572,Cc1nc2n(c(=O)c1CCN1CCC(c3noc4cc(F)ccc34)CC1)CCCC2,303.15,0.008,toluene,Cc1ccccc1,10.1016/j.fluid.2014.04.028
33579,CC1(C)CO[P+]([O-])(Oc2c(Br)cc(Br)cc2Br)OC1,303.15,0.01033,toluene,Cc1ccccc1,10.1016/j.fluid.2013.09.023
33599,COC(=O)[C@@H](N)CS.Cl,303.15,0.00634,isobutanol,CC(C)CO,10.1021/acs.jced.0c00795
33610,CC1(C)NC(=O)NC1=O,303.15,0.04387,isobutanol,CC(C)CO,10.1021/acs.jced.9b01020
33620,O=Cc1cc(Br)c(O)c(Br)c1,303.15,0.007615,isobutanol,CC(C)CO,10.1021/acs.jced.0c00376
33631,CCCSc1nc(N[C@@H]2C[C@H]2c2ccc(F)c(F)c2)c2nnn([C@@H]3C[C@H](OCCO)[C@@H](O)[C@H]3O)c2n1,303.15,0.003725,isobutanol,CC(C)CO,10.1021/acs.jced.0c00127
33640,O=C(Nc1ccccc1)c1ccccc1,303.15,0.005375,isobutanol,CC(C)CO,10.1021/acs.jced.0c00167
33648,CCOC(=O)[C@@H](C)Oc1ccc(Oc2cnc3cc(Cl)ccc3n2)cc1,303.15,0.005519,isobutanol,CC(C)CO,10.1021/acs.jced.1c00092
33657,O=C(O)COc1ccc(Cl)cc1,303.15,0.03653,isobutanol,CC(C)CO,10.1021/acs.jced.1c00153
33665,Cc1c(N)cccc1C(=O)O,303.15,0.00254,isobutanol,CC(C)CO,10.1021/acs.jced.1c00109
33706,CC(=O)Nc1ccccc1[N+](=O)[O-],303.15,0.02022,isobutanol,CC(C)CO,10.1021/acs.jced.1c00037
33713,CSCCC(NC(C)=O)C(=O)O,303.15,0.05309,isobutanol,CC(C)CO,10.1021/acs.jced.1c00064
33720,Nc1cccc(S(=O)(=O)c2cccc(N)c2)c1,303.15,0.001146,isobutanol,CC(C)CO,10.1021/acs.jced.1c00062
33739,O=C(O)[C@@H]1C[C@@H](O)CN1,303.15,0.000143,isobutanol,CC(C)CO,10.1021/acs.jced.0c00794
33750,O=Cc1cc(C=O)cc(C=O)c1,303.15,0.000917,isobutanol,CC(C)CO,10.1021/acs.jced.0c00776
33758,OCC(O)COc1ccc(Cl)cc1,303.15,0.06278,isobutanol,CC(C)CO,10.1021/acs.jced.0c00900
33770,COc1cc2nc(Cl)nc(N)c2cc1OC,303.15,0.0006014,isobutanol,CC(C)CO,10.1021/acs.jced.0c00506
33777,c1ccc2[nH]c(-c3cscn3)nc2c1,303.15,0.001762,isobutanol,CC(C)CO,10.1021/acs.jced.0c00724
33786,Nc1ccc(Cc2ccc(N)c(Cl)c2)cc1Cl,303.15,0.02271,isobutanol,CC(C)CO,10.1021/acs.jced.0c00655
33797,Nc1cccc(Cl)c1C(=O)O,303.15,0.03847,isobutanol,CC(C)CO,10.1021/acs.jced.0c00320
33804,CC1=NN(c2ccccc2)C(=O)C1,303.15,0.028837,isobutanol,CC(C)CO,10.1021/acs.jced.0c00290
33809,Cl.N=C(N=C(N)N)N1CCOCC1,303.15,0.000915,isobutanol,CC(C)CO,10.1021/acs.jced.0c00015
33817,O=C(O)c1cccc([N+](=O)[O-])c1O,303.15,0.05197,isobutanol,CC(C)CO,10.1021/acs.jced.1c00259
33824,Cl.N[C@@H](Cc1ccccc1)C(=O)OCc1ccccc1,303.15,0.001212,isobutanol,CC(C)CO,10.1021/acs.jced.1c00239
33829,CCOC(=O)[C@@H]1CSCN1.Cl,303.15,0.004951,isobutanol,CC(C)CO,10.1021/acs.jced.1c00079
33834,CC(C)(C)OC(=O)N1CCC[C@H]1C(=O)O,303.15,0.119962,isobutanol,CC(C)CO,10.1021/acs.jced.1c00201
33841,Nc1cccc(C(=O)O)c1,303.15,0.007965,isobutanol,CC(C)CO,10.1021/acs.jced.1c00247
33860,CCO.C[C@H]1c2cccc(O)c2C(O)=C2C(=O)[C@]3(O)C(O)=C(C(N)=O)C(=O)[C@@H](N(C)C)[C@@H]3[C@@H](O)[C@@H]21.C[C@H]1c2cccc(O)c2C(O)=C2C(=O)[C@]3(O)C(O)=C(C(N)=O)C(=O)[C@@H](N(C)C)[C@@H]3[C@@H](O)[C@@H]21.Cl.Cl.O,303.15,0.002049,isobutanol,CC(C)CO,10.1021/acs.jced.0c00097
33870,O=C(O)c1cc([N+](=O)[O-])cc([N+](=O)[O-])c1O,303.15,0.0358,isobutanol,CC(C)CO,10.1021/acs.jced.0c00122
33879,O=C1N=c2ccccc2=N1,303.15,0.0029233,isobutanol,CC(C)CO,10.1021/acs.jced.0c00165
33886,OCc1ccccc1O[C@@H]1OC(CO)[C@@H](O)[C@@H](O)C1O,303.15,0.00021518,isobutanol,CC(C)CO,10.1021/acs.jced.0c00332
33891,CCOC(=O)[C@@H](N)CCc1ccccc1.Cl,303.15,0.02025,isobutanol,CC(C)CO,10.1021/acs.jced.1c00485
33897,CC(CCc1ccccc1)NCC(O)c1ccc(O)c(C(N)=O)c1.Cl,303.15,0.000326,isobutanol,CC(C)CO,10.1021/acs.jced.1c00432
33907,COc1cc2c(cc1OC)C(=O)CC2,303.15,0.038549,isobutanol,CC(C)CO,10.1021/acs.jced.1c00040
33916,CC(=O)NCC(=O)O,303.15,0.00291,isobutanol,CC(C)CO,10.1021/acs.jced.0c00983
33925,CC(=O)N1CCC[C@H]1C(=O)O,303.15,0.10632,isobutanol,CC(C)CO,10.1021/acs.jced.1c00032
33932,CCCOC(=O)c1ccc(O)cc1,303.15,0.1909,isobutanol,CC(C)CO,10.1021/acs.jced.0c00584
33942,CNCCC(Oc1ccc(C(F)(F)F)cc1)c1ccccc1.Cl,303.15,0.007667,isobutanol,CC(C)CO,10.1021/acs.jced.0c00513
33950,C=CC(=O)NC(C)(C)CS(=O)(=O)O,303.15,0.004854,isobutanol,CC(C)CO,10.1021/acs.jced.0c00578
33960,O=C(O)Cc1ccccc1[N+](=O)[O-],303.15,0.02184,isobutanol,CC(C)CO,10.1021/acs.jced.0c00543
33970,O=C(O)Cc1ccc([N+](=O)[O-])cc1,303.15,0.04643,isobutanol,CC(C)CO,10.1021/acs.jced.0c00182
33978,N[C@@H](CS)C(=O)O,303.15,4.8e-05,isobutanol,CC(C)CO,10.1021/acs.jced.0c00031
33983,O=C([O-])/C=C/C(=O)O.[Na+],303.15,1.62e-05,isobutanol,CC(C)CO,10.1021/acs.jced.9b01203
33988,O=C[C@H](O)[C@H](O)[C@H](O)CO,303.15,0.006304,isobutanol,CC(C)CO,10.1021/acs.jced.0c00009
34010,CC(=O)N[C@@H](CC(C)C)C(=O)O,303.15,0.02826,isobutanol,CC(C)CO,10.1021/acs.jced.9b01151
34017,C[C@H](N)C(=O)O,303.15,0.000332,isobutanol,CC(C)CO,10.1021/acs.jced.9b00743
34025,O=Cc1ccc(O)c(Br)c1,303.15,0.02145,isobutanol,CC(C)CO,10.1021/acs.jced.9b01004
34036,CCCc1ncc(C[n+]2ccccc2C)c(N)n1.Cl.[Cl-],303.15,4.11e-05,isobutanol,CC(C)CO,10.1021/acs.jced.9b00999
34043,OC[C@H]1O[C@@H](Oc2ccc(O)cc2)[C@H](O)[C@@H](O)[C@@H]1O,303.15,0.0004535,isobutanol,CC(C)CO,10.1021/acs.jced.9b00703
34053,NC(N)=NC(N)=NCCc1ccccc1,303.15,0.001391,isobutanol,CC(C)CO,10.1021/acs.jced.9b00844
34074,CN(C)[C@@H]1C(=O)C(C(N)=O)=C(O)[C@@]2(O)C(=O)C3=C(O)c4c(O)cccc4C[C@H]3C[C@@H]12,303.15,7.171e-05,isobutanol,CC(C)CO,10.1021/acs.jced.9b00693
34080,N[C@H](Cc1c[nH]cn1)C(=O)O,303.15,0.0008498,isobutanol,CC(C)CO,10.1021/acs.jced.9b00659
34091,COC(=O)c1ccc(C(=O)OC)cc1,303.15,0.0033147,isobutanol,CC(C)CO,10.1021/acs.jced.9b00658
34100,O=C(O)C=CC(=O)O.OCCOCCN1CCN(C2=Nc3ccccc3Sc3ccccc32)CC1.OCCOCCN1CCN(C2=Nc3ccccc3Sc3ccccc32)CC1,303.15,0.000204,isobutanol,CC(C)CO,10.1021/acs.jced.7b00518
34110,O=C1C=CC(=O)N1c1ccccc1Br,303.15,0.01727,isobutanol,CC(C)CO,10.1021/acs.jced.9b00560
34119,Cc1nc(N)nc(N)n1,303.15,0.0007923,isobutanol,CC(C)CO,10.1021/acs.jced.9b00593
34140,CC(=NC#N)N(C)Cc1ccc(Cl)nc1,303.15,0.006133,isobutanol,CC(C)CO,10.1021/acs.jced.9b00294
34160,N#Cc1cccc([N+](=O)[O-])c1C#N,303.15,0.0007654,isobutanol,CC(C)CO,10.1021/acs.jced.8b01250
34179,N#CCc1ccccc1[N+](=O)[O-],303.15,0.01024,isobutanol,CC(C)CO,10.1021/acs.jced.9b00243
34190,NC(=O)c1ccc([N+](=O)[O-])cc1,303.15,0.001867,isobutanol,CC(C)CO,10.1021/acs.jced.9b00065
34200,NC(=O)c1ccc(N)cc1,303.15,0.003089,isobutanol,CC(C)CO,10.1021/acs.jced.8b01144
34209,COC(=O)Nc1nc2ccc(C(=O)c3ccc(F)cc3)cc2[nH]1,303.15,3.546e-05,isobutanol,CC(C)CO,10.1021/acs.jced.8b01126
34221,Nc1nc(Cl)c2[nH]cnc2n1,303.15,0.0002107,isobutanol,CC(C)CO,10.1021/acs.jced.8b01014
34233,N#CCc1ccc([N+](=O)[O-])cc1,303.15,0.002989,isobutanol,CC(C)CO,10.1021/acs.jced.8b00811
34242,O=C(O)c1cc2ccccc2cc1O,303.15,0.02067,isobutanol,CC(C)CO,10.1021/acs.jced.8b00578
34254,CS(=O)(=O)O.Cc1ccc(NC(=O)c2ccc(CN3CCN(C)CC3)cc2)cc1Nc1nccc(-c2cccnc2)n1,303.15,6.81e-05,isobutanol,CC(C)CO,10.1021/acs.jced.8b00551
34263,N#Cc1cccc([N+](=O)[O-])c1,303.15,0.00504,isobutanol,CC(C)CO,10.1021/acs.jced.7b00615
34285,NC(=O)c1cccnc1,303.15,0.0392496,isobutanol,CC(C)CO,10.1021/acs.jced.8b00560
34294,Cc1cc(C)nc(Nc2ccccc2)n1,303.15,0.0345,isobutanol,CC(C)CO,10.1021/acs.jced.8b00124
34305,O=C(O)Cc1ccccc1Cl,303.15,0.3215,isobutanol,CC(C)CO,10.1021/acs.jced.8b00139
34319,CS(=O)(=O)c1ccc([C@@H](O)[C@@H](CF)NC(=O)C(Cl)Cl)cc1,303.15,0.0008192,isobutanol,CC(C)CO,10.1021/acs.jced.8b00043
34340,O=C(c1ccccc1)c1ccccc1,303.15,0.3783,isobutanol,CC(C)CO,10.1021/acs.jced.8b00196
34350,O=C(c1ccccc1)C(O)c1ccccc1,303.15,0.002324,isobutanol,CC(C)CO,10.1021/acs.jced.7b00743
34365,Cc1ccc(S(=O)(=O)O)cc1.Cc1ccc(S(=O)(=O)O)cc1.OCCN(CCO)c1nc(N2CCCCC2)c2nc(N(CCO)CCO)nc(N3CCCCC3)c2n1,303.15,0.000421,isobutanol,CC(C)CO,10.1021/acs.jced.7b00825
34376,O=C1O[C@H]([C@@H](O)CO)C(O)=C1O.[Na],303.15,6.06e-06,isobutanol,CC(C)CO,10.1021/acs.jced.7b00846
34384,CO/C=C(/C(=O)OC)c1ccccc1Oc1cc(Oc2ccccc2C#N)ncn1,303.15,0.001293,isobutanol,CC(C)CO,10.1021/acs.jced.7b00669
34395,CC(=O)c1ccc(S(C)(=O)=O)cc1,303.15,0.0142,isobutanol,CC(C)CO,10.1021/acs.jced.6b00617
34403,CNC(=O)c1cc(Oc2ccc(NC(=O)Nc3ccc(Cl)c(C(F)(F)F)c3)cc2)ccn1,303.15,0.0007154,isobutanol,CC(C)CO,10.1021/acs.jced.6b00630
34409,CNC(=O)c1cc(Oc2ccc(NC(=O)Nc3ccc(Cl)c(C(F)(F)F)c3)cc2)ccn1.Cc1ccc(S(=O)(=O)O)cc1,303.15,0.0001489,isobutanol,CC(C)CO,10.1021/acs.jced.6b00630
34415,O=C(O)/C=C/c1ccc(O)cc1,303.15,0.0256,isobutanol,CC(C)CO,10.1021/acs.jced.6b00361
34427,CCOC(=O)c1ccc(N)cc1,303.15,0.071,isobutanol,CC(C)CO,10.1021/acs.jced.6b00037
34443,COc1cc(C(=O)O)ccc1O,303.15,0.0175,isobutanol,CC(C)CO,10.1021/acs.jced.5b00619
34472,Clc1cc(Cl)cc(Cl)c1,303.15,0.117,isobutanol,CC(C)CO,10.1021/acs.jced.5b00607
34487,O=S(=O)(c1ccc(O)cc1)c1ccc(O)cc1,303.15,0.0007958,isobutanol,CC(C)CO,10.1021/acs.jced.5b00714
34495,COc1ccc(C(=O)O)c(OC)c1,303.15,0.0139,isobutanol,CC(C)CO,10.1021/je501045s
34546,O=C(Oc1ccccc1)c1ccccc1O,303.15,0.2787,isobutanol,CC(C)CO,10.1021/je800668j
34582,CCCN(CCC)S(=O)(=O)c1ccc(C(=O)O)cc1,303.15,0.009041,isobutanol,CC(C)CO,10.1021/acs.jced.8b00863
34591,S=C(Nc1ccccc1)Nc1ccccc1,303.15,0.002338,isobutanol,CC(C)CO,10.1016/j.jct.2021.106605
34601,O=C(O)COc1ccc(Cl)cc1Cl,303.15,0.0933,isobutanol,CC(C)CO,10.1016/j.jct.2021.106589
34610,CC(=O)Nc1ccc(C(=O)O)cc1,303.15,0.006958,isobutanol,CC(C)CO,10.1016/j.jct.2021.106478
34620,CN1CCN(C2=Nc3cc(Cl)ccc3Nc3ccccc32)CC1,303.15,0.01079,isobutanol,CC(C)CO,10.1016/j.jct.2021.106451
34630,COCCOC(=O)C1=C(C)NC(C)=C(C(=O)OC(C)C)C1c1cccc([N+](=O)[O-])c1,303.15,0.01368,isobutanol,CC(C)CO,10.1016/j.jct.2020.106259
34638,Cl.c1ccc([C@H]2CN3CCSC3=N2)cc1,303.15,0.00334,isobutanol,CC(C)CO,10.1016/j.jct.2019.105882
34655,S=c1[nH]c2ccccc2s1,303.15,0.02696,isobutanol,CC(C)CO,10.1016/j.jct.2017.05.013
34665,C[C@@H]1O[C@@H](OC[C@H]2O[C@@H](Oc3c(-c4ccc(OCCO)c(OCCO)c4)oc4cc(OCCO)cc(O)c4c3=O)[C@H](O)[C@@H](O)[C@@H]2O)[C@H](O)[C@H](O)[C@H]1O,303.15,9e-05,isobutanol,CC(C)CO,10.1016/j.jct.2016.09.015
34678,O=C1NC(=O)c2ccccc21,303.15,0.002917,isobutanol,CC(C)CO,10.1016/j.jct.2015.10.024
34689,COC(=O)N(OC)c1ccccc1COc1ccn(-c2ccc(Cl)cc2)n1,303.15,0.01152,isobutanol,CC(C)CO,10.1016/j.jct.2016.05.005
34703,N=C(Nc1ccccc1)Nc1ccccc1,303.15,0.03333,isobutanol,CC(C)CO,10.1016/j.jct.2016.03.011
34714,O=C1c2cccc(Cl)c2C(=O)N1c1ccccc1,303.15,0.0002579,isobutanol,CC(C)CO,10.1016/j.jct.2016.01.003
34727,Nc1nc(N)nc(NC2CC2)n1,303.15,0.0008402,isobutanol,CC(C)CO,10.1016/j.fluid.2018.07.024
34738,Cc1cc(C)c(C(=O)P(=O)(c2ccccc2)c2ccccc2)c(C)c1,303.15,0.22,isobutanol,CC(C)CO,10.1016/j.fluid.2018.01.015
34754,Cn1nc([N+](=O)[O-])c([N+](=O)[O-])c1[N+](=O)[O-],303.15,0.00557,isobutanol,CC(C)CO,10.1016/j.fluid.2017.04.008
34762,CCOc1ccccc1C(N)=O,303.15,0.01616,isobutanol,CC(C)CO,10.1016/j.fluid.2016.08.019
34782,COC(=O)[C@@H](N)CS.Cl,303.15,0.00824,n-pentanol,CCCCCO,10.1021/acs.jced.0c00795
34793,CC1(C)NC(=O)NC1=O,303.15,0.03981,n-pentanol,CCCCCO,10.1021/acs.jced.9b01020
34803,O=Cc1cc(Br)c(O)c(Br)c1,303.15,0.01348,n-pentanol,CCCCCO,10.1021/acs.jced.0c00376
34818,CSCCC(NC(C)=O)C(=O)O,303.15,0.04652,n-pentanol,CCCCCO,10.1021/acs.jced.1c00064
34834,O=C(O)[C@@H]1C[C@@H](O)CN1,303.15,0.00017,n-pentanol,CCCCCO,10.1021/acs.jced.0c00794
34845,O=Cc1cc(C=O)cc(C=O)c1,303.15,0.002444,n-pentanol,CCCCCO,10.1021/acs.jced.0c00776
34853,CCOc1ccccc1C(N)=O,303.15,0.016534,n-pentanol,CCCCCO,10.1021/acs.jced.0c01081
34863,O=C(Nc1ccccc1)c1ccccc1O,303.15,0.0237551,n-pentanol,CCCCCO,10.1021/acs.jced.0c01078
34870,CC1=NN(c2ccccc2)C(=O)C1,303.15,0.038066,n-pentanol,CCCCCO,10.1021/acs.jced.0c00290
34875,Cl.N=C(N=C(N)N)N1CCOCC1,303.15,0.00061,n-pentanol,CCCCCO,10.1021/acs.jced.0c00015
34880,Cl.N[C@@H](Cc1ccccc1)C(=O)OCc1ccccc1,303.15,0.00158,n-pentanol,CCCCCO,10.1021/acs.jced.1c00239
34897,CCO.C[C@H]1c2cccc(O)c2C(O)=C2C(=O)[C@]3(O)C(O)=C(C(N)=O)C(=O)[C@@H](N(C)C)[C@@H]3[C@@H](O)[C@@H]21.C[C@H]1c2cccc(O)c2C(O)=C2C(=O)[C@]3(O)C(O)=C(C(N)=O)C(=O)[C@@H](N(C)C)[C@@H]3[C@@H](O)[C@@H]21.Cl.Cl.O,303.15,0.008465,n-pentanol,CCCCCO,10.1021/acs.jced.0c00097
34904,OCc1ccccc1O[C@@H]1OC(CO)[C@@H](O)[C@@H](O)C1O,303.15,0.00020261,n-pentanol,CCCCCO,10.1021/acs.jced.0c00332
34909,OC[C@H]1O[C@@H](Oc2ccc(O)cc2)[C@H](O)[C@@H](O)[C@@H]1O,303.15,0.000689,n-pentanol,CCCCCO,10.1021/acs.jced.0c00353
34914,CCOC(=O)[C@@H](N)CCc1ccccc1.Cl,303.15,0.02943,n-pentanol,CCCCCO,10.1021/acs.jced.1c00485
34921,COc1cc2c(cc1OC)C(=O)CC2,303.15,0.038557,n-pentanol,CCCCCO,10.1021/acs.jced.1c00040
34930,CC(=O)NCC(=O)O,303.15,0.003075,n-pentanol,CCCCCO,10.1021/acs.jced.0c00983
34939,CC(=O)N1CCC[C@H]1C(=O)O,303.15,0.07498,n-pentanol,CCCCCO,10.1021/acs.jced.1c00032
34947,CNCCC(Oc1ccc(C(F)(F)F)cc1)c1ccccc1.Cl,303.15,0.01114,n-pentanol,CCCCCO,10.1021/acs.jced.0c00513
34953,O=C([O-])/C=C/C(=O)O.[Na+],303.15,4.93e-05,n-pentanol,CCCCCO,10.1021/acs.jced.9b01203
34960,CN(C)Cc1c[nH]c2ccccc12,303.15,0.0022831,n-pentanol,CCCCCO,10.1021/acs.jced.9b01063
34967,C[C@H](N)C(=O)O,303.15,0.00032,n-pentanol,CCCCCO,10.1021/acs.jced.9b00743
34975,O=Cc1ccc(O)c(Br)c1,303.15,0.02521,n-pentanol,CCCCCO,10.1021/acs.jced.9b01004
35001,O=P(O)(O)c1ccccc1,303.15,0.22607,n-pentanol,CCCCCO,10.1021/acs.jced.9b00362
35022,Cc1c(C(=O)O)cc([N+](=O)[O-])cc1[N+](=O)[O-],303.15,0.01933,n-pentanol,CCCCCO,10.1021/acs.jced.9b00497
35060,CCCCC1C(=O)N(c2ccccc2)N(c2ccccc2)C1=O,303.15,0.01211,n-pentanol,CCCCCO,10.1021/acs.jced.6b00911
35069,CCOC(=O)N1CCC(=C2c3ccc(Cl)cc3CCc3cccnc32)CC1,303.15,0.05595,n-pentanol,CCCCCO,10.1021/acs.jced.6b00721
35079,CO[C@@]1(NC(=O)CSCC#N)C(=O)N2C(C(=O)[O-])=C(CSc3nnnn3C)CS[C@@H]21.[Na+],303.15,8e-05,n-pentanol,CCCCCO,10.1021/acs.jced.6b00741
35089,COC(=O)c1c(C)cc(O)c(C)c1O,303.15,0.1231,n-pentanol,CCCCCO,10.1021/acs.jced.6b00646
35095,CNC(=O)c1cc(Oc2ccc(NC(=O)Nc3ccc(Cl)c(C(F)(F)F)c3)cc2)ccn1,303.15,0.001222,n-pentanol,CCCCCO,10.1021/acs.jced.6b00630
35101,CNC(=O)c1cc(Oc2ccc(NC(=O)Nc3ccc(Cl)c(C(F)(F)F)c3)cc2)ccn1.Cc1ccc(S(=O)(=O)O)cc1,303.15,0.0001482,n-pentanol,CCCCCO,10.1021/acs.jced.6b00630
35131,C=CC1=C(C(=O)O)N2C(=O)[C@@H](NC(=O)/C(=N\OCC(=O)O)c3csc(N)n3)[C@H]2SC1.O.O.O,303.15,0.001364,n-pentanol,CCCCCO,10.1021/je5000605
35169,CO/N=C(\C(=O)Sc1nc2ccccc2s1)c1csc(N)n1,303.15,0.0009922,n-pentanol,CCCCCO,10.1021/je900784v
35208,CCCCc1nc(Cl)c(CO)n1Cc1ccc(-c2ccccc2-c2nnn[n-]2)cc1.[K+],303.15,0.03109,n-pentanol,CCCCCO,10.1021/je7007236
35217,CCOc1ccc(NC(C)=O)cc1,303.15,0.024323,n-pentanol,CCCCCO,10.1021/je700209v
35243,CCCN(CCC)S(=O)(=O)c1ccc(C(=O)O)cc1,303.15,0.01706,n-pentanol,CCCCCO,10.1021/acs.jced.8b00863
35252,COC(=O)[C@H](N)c1ccc(O)cc1,303.15,0.0010711,n-pentanol,CCCCCO,10.1021/acs.jced.6b00415
35262,O=C(O)COc1ccc(Cl)cc1Cl,303.15,0.155,n-pentanol,CCCCCO,10.1016/j.jct.2021.106589
35271,Nc1nc2ccc(OC(F)(F)F)cc2s1,303.15,0.26424,n-pentanol,CCCCCO,10.1016/j.jct.2021.106569
35281,CC(=O)Nc1ccc(C(=O)O)cc1,303.15,0.007408,n-pentanol,CCCCCO,10.1016/j.jct.2021.106478
35291,CN1CCN(C2=Nc3cc(Cl)ccc3Nc3ccccc32)CC1,303.15,0.01521,n-pentanol,CCCCCO,10.1016/j.jct.2021.106398
35301,CN1CCN(C2=Nc3cc(Cl)ccc3Nc3ccccc32)CC1,303.15,0.01588,n-pentanol,CCCCCO,10.1016/j.jct.2021.106451
35311,CCCCN(CCCC)CC(O)c1cc(Cl)cc2c1-c1ccc(Cl)cc1/C2=C/c1ccc(Cl)cc1,303.15,0.0009685,n-pentanol,CCCCCO,10.1016/j.jct.2020.106323
35321,COCCOC(=O)C1=C(C)NC(C)=C(C(=O)OC(C)C)C1c1cccc([N+](=O)[O-])c1,303.15,0.01448,n-pentanol,CCCCCO,10.1016/j.jct.2020.106259
35330,O=C(O)CCc1nc(-c2ccccc2)c(-c2ccccc2)o1,303.15,0.00864,n-pentanol,CCCCCO,10.1016/j.jct.2020.106239
35340,CC(C)Oc1ccc2c(=O)c(-c3ccccc3)coc2c1,303.15,0.007301,n-pentanol,CCCCCO,10.1016/j.jct.2020.106231
35349,Cl.c1ccc([C@H]2CN3CCSC3=N2)cc1,303.15,0.002933,n-pentanol,CCCCCO,10.1016/j.jct.2019.105882
35359,O=C1c2cccc(O)c2C(=O)c2c(O)cc(CO)cc21,303.15,0.0001582,n-pentanol,CCCCCO,10.1016/j.jct.2016.02.020
35371,COc1cc(CO)ccc1O,303.15,0.0338,n-pentanol,CCCCCO,10.1016/j.jct.2016.11.030
35379,C[C@@H]1O[C@@H](OC[C@H]2O[C@@H](Oc3c(-c4ccc(OCCO)c(OCCO)c4)oc4cc(OCCO)cc(O)c4c3=O)[C@H](O)[C@@H](O)[C@@H]2O)[C@H](O)[C@H](O)[C@H]1O,303.15,0.000132,n-pentanol,CCCCCO,10.1016/j.jct.2016.09.015
35423,CC(C)(C)C(=O)C(Oc1ccc(Cl)cc1)n1ccnc1,303.15,0.1739,n-pentanol,CCCCCO,10.1016/j.jct.2014.04.011
35431,Nc1nc(N)nc(NC2CC2)n1,303.15,0.001422,n-pentanol,CCCCCO,10.1016/j.fluid.2018.07.024
35440,Cn1cc([N+](=O)[O-])cn1,303.15,0.002775,n-pentanol,CCCCCO,10.1016/j.fluid.2018.05.023
35459,Cn1nc([N+](=O)[O-])c([N+](=O)[O-])c1[N+](=O)[O-],303.15,0.011067,n-pentanol,CCCCCO,10.1016/j.fluid.2017.04.008
35466,O=C(O)CN(CC(=O)O)CP(=O)(O)O,303.15,0.0001862,n-pentanol,CCCCCO,10.1016/j.fluid.2014.08.036
35478,CCn1c2ccccc2c2ccccc21,303.15,0.035,n-pentanol,CCCCCO,10.1016/j.fluid.2014.06.030
35507,O=C(Nc1ccccc1)c1ccccc1,303.15,0.052067,THF,C1CCOC1,10.1021/acs.jced.0c00167
35521,c1ccc(-n2c(-c3cc(-c4nc5ccccc5n4-c4ccccc4)cc(-c4nc5ccccc5n4-c4ccccc4)c3)nc3ccccc32)cc1,303.15,0.00277,THF,C1CCOC1,10.1021/acs.jced.1c00163
35527,OCC(O)COc1ccc(Cl)cc1,303.15,0.2682,THF,C1CCOC1,10.1021/acs.jced.0c00900
35538,NC(=O)[C@@H]1CCCN1,303.15,0.15594,THF,C1CCOC1,10.1021/acs.jced.0c00961
35549,CC(=O)O[C@]1(C(C)=O)CC[C@H]2[C@@H]3C=C(Cl)C4=CC(=O)[C@@H]5C[C@@H]5[C@]4(C)[C@H]3CC[C@@]21C,303.15,0.00046722,THF,C1CCOC1,10.1021/acs.jced.0c00803
35558,c1cnc2[nH]ccc2c1,303.15,0.4364,THF,C1CCOC1,10.1021/acs.jced.0c00128
35568,COc1ccccc1OCCNCC(O)COc1cccc2[nH]c3ccccc3c12,303.15,0.00227,THF,C1CCOC1,10.1021/acs.jced.0c00040
35577,C#C[C@]1(O)CC[C@H]2[C@@H]3CCC4=CC(=O)CC[C@@H]4[C@H]3C(=C)C[C@@]21CC,303.15,0.2,THF,C1CCOC1,10.1021/acs.jced.0c00201
35587,O=C(O)c1cccc(C(=O)O)n1,303.15,0.004207,THF,C1CCOC1,10.1021/acs.jced.1c00200
35596,CNC(=O)c1cc(Oc2ccc(N)cc2)ccn1,303.15,0.14382,THF,C1CCOC1,10.1021/acs.jced.1c00232