,SMILES,"T,K",Solubility,Solvent,SMILES_Solvent,Source
20730,CN1CCN(c2c(F)cc3c(=O)c(C(=O)O)cn4c3c2OCN4C)CC1,303.15,0.0002547,ethyl acetate,CCOC(C)=O,10.1021/acs.jced.9b00490
20751,Nc1c(Cl)cc([N+](=O)[O-])cc1Cl,303.15,0.01774,ethyl acetate,CCOC(C)=O,10.1021/acs.jced.9b00778
20761,CN(C)[C@@H]1C(=O)C(C(N)=O)=C(O)[C@@]2(O)C(=O)C3=C(O)c4c(O)cccc4C[C@H]3C[C@@H]12,303.15,0.0007608,ethyl acetate,CCOC(C)=O,10.1021/acs.jced.9b00693
20769,NCCCCCC(=O)O,303.15,0.0002,ethyl acetate,CCOC(C)=O,10.1021/acs.jced.9b00543
20780,OCc1ccc(O[C@@H]2O[C@H](CO)[C@@H](O)[C@H](O)[C@H]2O)cc1,303.15,0.00418,ethyl acetate,CCOC(C)=O,10.1021/acs.jced.9b00286
20788,O=[N+]([O-])c1ncccc1O,303.15,0.2542,ethyl acetate,CCOC(C)=O,10.1021/acs.jced.9b00564
20805,N=C(N)NC(N)=S,303.15,0.004714,ethyl acetate,CCOC(C)=O,10.1021/acs.jced.9b00458
20824,CC1(C)COP(=O)(Oc2cccc(OP3(=O)OCC(C)(C)CO3)c2)OC1,303.15,0.00123,ethyl acetate,CCOC(C)=O,10.1021/acs.jced.7b00695
20835,O=C(O)C=CC(=O)O.OCCOCCN1CCN(C2=Nc3ccccc3Sc3ccccc32)CC1.OCCOCCN1CCN(C2=Nc3ccccc3Sc3ccccc32)CC1,303.15,0.000218,ethyl acetate,CCOC(C)=O,10.1021/acs.jced.7b00518
20857,C[C@]12CCC3=C4CCC(=O)C=C4CC[C@H]3[C@@H]1CC[C@@]2(O)CC#N,303.15,0.00304,ethyl acetate,CCOC(C)=O,10.1021/acs.jced.9b00696
20863,c1cc(-n2c3ccccc3c3ccccc32)cc(-n2c3ccccc3c3ccccc32)c1,303.15,0.00827,ethyl acetate,CCOC(C)=O,10.1021/acs.jced.9b00432
20870,N[C@@H](CO)C(=O)O,303.15,4e-05,ethyl acetate,CCOC(C)=O,10.1021/acs.jced.9b00460
20881,Cc1nc(N)nc(N)n1,303.15,0.001254,ethyl acetate,CCOC(C)=O,10.1021/acs.jced.9b00593
20891,N[C@@H](Cc1c[nH]c2ccccc12)C(=O)O,303.15,0.00014,ethyl acetate,CCOC(C)=O,10.1021/acs.jced.9b00562
20904,Cc1cnc(C(=O)O)cn1,303.15,9.45e-06,ethyl acetate,CCOC(C)=O,10.1021/acs.jced.9b00406
20911,Nc1nnn[nH]1,303.15,0.000834,ethyl acetate,CCOC(C)=O,10.1021/acs.jced.9b00385
20917,NNC(=O)NN.O=[N+]([O-])NC1=NC(C2N=NC(N[N+](=O)[O-])=N2)N=N1,303.15,3.23e-05,ethyl acetate,CCOC(C)=O,10.1021/acs.jced.9b00275
20942,Sc1nc2ccccc2[nH]1,303.15,0.00413,ethyl acetate,CCOC(C)=O,10.1021/acs.jced.9b00190
20949,Cc1c(C(=O)O)cc([N+](=O)[O-])cc1[N+](=O)[O-],303.15,0.03591,ethyl acetate,CCOC(C)=O,10.1021/acs.jced.9b00497
20961,CC(=NC#N)N(C)Cc1ccc(Cl)nc1,303.15,0.02807,ethyl acetate,CCOC(C)=O,10.1021/acs.jced.9b00294
20970,Cc1n[nH]c2cc([N+](=O)[O-])ccc12,303.15,0.0295,ethyl acetate,CCOC(C)=O,10.1021/acs.jced.8b01256
20982,NS(=O)(=O)c1ccccc1,303.15,0.05629,ethyl acetate,CCOC(C)=O,10.1021/acs.jced.9b00360
20992,CN(C)/C=C/C(=O)c1cccnc1,303.15,0.02001,ethyl acetate,CCOC(C)=O,10.1021/acs.jced.9b00047
21004,CC(=O)c1c(C)c([N+](=O)[O-])c(C(C)(C)C)c([N+](=O)[O-])c1C,303.15,0.1218,ethyl acetate,CCOC(C)=O,10.1021/acs.jced.9b00310
21012,N#Cc1cccc([N+](=O)[O-])c1C#N,303.15,0.03722,ethyl acetate,CCOC(C)=O,10.1021/acs.jced.8b01250
21023,O=Cc1cc([N+](=O)[O-])ccc1O,303.15,0.02675,ethyl acetate,CCOC(C)=O,10.1021/acs.jced.9b00232
21030,N[C@H](Cc1c[nH]c2ccccc12)C(=O)O,303.15,0.0005414,ethyl acetate,CCOC(C)=O,10.1021/acs.jced.9b00258
21040,N[C@@H](Cc1ccc(O)cc1)C(=O)O,303.15,0.003403,ethyl acetate,CCOC(C)=O,10.1021/acs.jced.9b00258
21060,N#CCc1ccccc1[N+](=O)[O-],303.15,0.2193,ethyl acetate,CCOC(C)=O,10.1021/acs.jced.9b00243
21073,Nc1cc([N+](=O)[O-])ccc1Cl,303.15,0.1256,ethyl acetate,CCOC(C)=O,10.1021/acs.jced.8b00931
21082,CCOC(=O)[C@@H](C)Oc1ccc(Oc2cnc3cc(Cl)ccc3n2)cc1,303.15,0.01135,ethyl acetate,CCOC(C)=O,10.1021/acs.jced.8b01181
21091,N#CCC(N)=O,303.15,0.01104,ethyl acetate,CCOC(C)=O,10.1021/acs.jced.8b01205
21100,Cc1cccc(C(=O)O)c1N,303.15,0.06185,ethyl acetate,CCOC(C)=O,10.1021/acs.jced.8b01226
21108,NC(=O)c1ccc([N+](=O)[O-])cc1,303.15,0.004708,ethyl acetate,CCOC(C)=O,10.1021/acs.jced.9b00065
21128,Nc1nc2c(ncn2COC(CO)CO)c(=O)[nH]1,303.15,9.973e-07,ethyl acetate,CCOC(C)=O,10.1021/acs.jced.8b01080
21138,Nc1cccc2c(N)cccc12,303.15,0.009917,ethyl acetate,CCOC(C)=O,10.1021/acs.jced.8b01214
21147,Nc1cccc2cccc(N)c12,303.15,0.2116,ethyl acetate,CCOC(C)=O,10.1021/acs.jced.8b01214
21154,C[C@@H](O)[C@H]1C(=O)N2C(C(=O)[O-])=C(SC3Cn4cnc[n+]4C3)[C@H](C)[C@H]12,303.15,7.97e-05,ethyl acetate,CCOC(C)=O,10.1021/acs.jced.8b01051
21164,O=C(O)Cc1c[nH]c2ccccc12,303.15,4.581e-05,ethyl acetate,CCOC(C)=O,10.1021/acs.jced.8b01265
21175,CC#C[C@]1(O)CC[C@H]2[C@@H]3CCC4=CC(=O)CCC4=C3[C@@H](c3ccc(N(C)C)cc3)C[C@@]21C,303.15,0.000325,ethyl acetate,CCOC(C)=O,10.1021/acs.jced.8b01062
21183,NC(=O)c1ccc(N)cc1,303.15,0.001032,ethyl acetate,CCOC(C)=O,10.1021/acs.jced.8b01144
21192,CC(=O)N(CC(O)CO)c1c(I)c(C(=O)NCC(O)CO)c(I)c(C(=O)NCC(O)CO)c1I,303.15,0.0002559,ethyl acetate,CCOC(C)=O,10.1021/acs.jced.8b01101
21203,CC(C)N1C(=O)N(c2ccccc2)CSC1=NC(C)(C)C,303.15,0.1157,ethyl acetate,CCOC(C)=O,10.1021/acs.jced.8b01099
21213,Cc1nc(C)c(C)nc1C,303.15,0.244,ethyl acetate,CCOC(C)=O,10.1021/acs.jced.8b00888
21222,COc1c(N2CCNC(C)C2)c(F)cc2c(=O)c(C(=O)O)cn(C3CC3)c12,303.15,0.007781,ethyl acetate,CCOC(C)=O,10.1021/acs.jced.8b00902
21230,CCOC(=O)C1=C[C@]2(CC)CCCN3CCc4c(n1c1ccccc41)[C@@H]32,303.15,0.0087908,ethyl acetate,CCOC(C)=O,10.1021/acs.jced.8b00663
21240,N#CCc1ccc([N+](=O)[O-])cc1,303.15,0.1698,ethyl acetate,CCOC(C)=O,10.1021/acs.jced.8b00811
21251,COc1ccc(Cl)cc1C(=O)NCCc1ccc(S(=O)(=O)NC(=O)NC2CCCCC2)cc1,303.15,0.00022627,ethyl acetate,CCOC(C)=O,10.1021/acs.jced.8b00717
21260,NNC(=O)c1ccncc1,303.15,0.001946,ethyl acetate,CCOC(C)=O,10.1021/acs.jced.8b00785
21269,CC[C@@H](C(N)=O)N1CCCC1=O,303.15,0.01044,ethyl acetate,CCOC(C)=O,10.1021/acs.jced.8b00720
21276,O=C(O)c1cc2ccccc2cc1O,303.15,0.02784,ethyl acetate,CCOC(C)=O,10.1021/acs.jced.8b00578
21289,CCOC(=O)[C@H](CCc1ccccc1)N[C@@H](C)C(=O)O,303.15,0.01155,ethyl acetate,CCOC(C)=O,10.1021/acs.jced.8b00333
21299,CCOC(=O)[C@H](CCc1ccccc1)N[C@@H](C)C(=O)N1CCC[C@H]1C(=O)O.O=C(O)/C=C\C(=O)O,303.15,0.005758,ethyl acetate,CCOC(C)=O,10.1021/acs.jced.8b00333
21308,CC(C)(C#N)N=NC(C)(C)C#N,303.15,0.095948,ethyl acetate,CCOC(C)=O,10.1021/acs.jced.7b00538
21315,CC1(C)COP(=O)(C(Nc2ccccc2)c2ccccc2)OC1,303.15,0.00385,ethyl acetate,CCOC(C)=O,10.1021/acs.jced.7b00585
21327,Cc1ccc(S(N)(=O)=O)cc1,303.15,0.1042,ethyl acetate,CCOC(C)=O,10.1021/acs.jced.7b00714
21335,Cc1ccccc1S(N)(=O)=O,303.15,0.06441,ethyl acetate,CCOC(C)=O,10.1021/acs.jced.7b00714
21344,N#Cc1cccc([N+](=O)[O-])c1,303.15,0.1086,ethyl acetate,CCOC(C)=O,10.1021/acs.jced.7b00615
21367,CS(=O)(=O)c1ccc([C@@H](O)[C@@H](CO)NC(=O)C(Cl)Cl)cc1,303.15,0.0003481,ethyl acetate,CCOC(C)=O,10.1021/acs.jced.7b00542
21375,NC(=O)c1cccnc1,303.15,0.0128994,ethyl acetate,CCOC(C)=O,10.1021/acs.jced.8b00560
21386,COCC(=O)Nc1c(I)c(C(=O)NCC(O)CO)c(I)c(C(=O)N(C)CC(O)CO)c1I,303.15,6.84e-05,ethyl acetate,CCOC(C)=O,10.1021/acs.jced.8b00416
21403,Nc1nc(Cl)cc(Cl)n1,303.15,0.00981,ethyl acetate,CCOC(C)=O,10.1021/acs.jced.8b00292
21411,O=C(c1ccccc1)C(O)c1ccccc1,303.15,0.0151,ethyl acetate,CCOC(C)=O,10.1021/acs.jced.7b00238
21420,COc1cc(C(=O)O)cc(OC)c1O,303.15,0.00149,ethyl acetate,CCOC(C)=O,10.1021/acs.jced.7b00333
21450,On1nnc2ccccc21,303.15,0.01487,ethyl acetate,CCOC(C)=O,10.1021/acs.jced.7b00316
21460,O=C(O)Cc1cccc2ccccc12,303.15,0.14,ethyl acetate,CCOC(C)=O,10.1021/acs.jced.6b00816
21470,COc1ccc(CN2CCNCC2)c(OC)c1OC.Cl,303.15,0.002437,ethyl acetate,CCOC(C)=O,10.1021/acs.jced.8b00235
21480,CC(=O)c1cccc([N+](=O)[O-])c1,303.15,0.1908,ethyl acetate,CCOC(C)=O,10.1021/acs.jced.8b00192
21489,CC(=O)c1ccc([N+](=O)[O-])cc1,303.15,0.2196,ethyl acetate,CCOC(C)=O,10.1021/acs.jced.8b00192
21499,COc1ccc(C(=O)N2CCCC2=O)cc1,303.15,0.03845,ethyl acetate,CCOC(C)=O,10.1021/acs.jced.8b00023
21509,O=C(O)Cc1ccccc1Cl,303.15,0.3119,ethyl acetate,CCOC(C)=O,10.1021/acs.jced.8b00139
21515,Nc1ccc(C(=O)O)cc1.[K],303.15,0.000211,ethyl acetate,CCOC(C)=O,10.1021/acs.jced.7b00978
21522,Nc1ccc(S(=O)(=O)Nc2ccc(Cl)nn2)cc1,303.15,0.01788,ethyl acetate,CCOC(C)=O,10.1021/acs.jced.7b01134
21532,O=C(c1ccccc1)c1ccccc1,303.15,0.5327,ethyl acetate,CCOC(C)=O,10.1021/acs.jced.8b00196
21541,Cc1ccc(NC(=O)/C(=C/Cl)Sc2ccccc2)cc1,303.15,0.0522,ethyl acetate,CCOC(C)=O,10.1021/acs.jced.7b01011
21560,O=C(c1ccccc1)C(O)c1ccccc1,303.15,0.01608,ethyl acetate,CCOC(C)=O,10.1021/acs.jced.7b00743
21564,O=C(O)c1ccccc1O,303.15,0.14009,ethyl acetate,CCOC(C)=O,10.1021/acs.jced.7b00665
21582,O=C1O[C@H]([C@@H](O)CO)C(O)=C1O.[Na],303.15,1.93e-05,ethyl acetate,CCOC(C)=O,10.1021/acs.jced.7b00846
21590,CO/C=C(/C(=O)OC)c1ccccc1Oc1cc(Oc2ccccc2C#N)ncn1,303.15,0.041461,ethyl acetate,CCOC(C)=O,10.1021/acs.jced.7b00669
21600,O=[N+]([O-])N1C2C3N([N+](=O)[O-])C1C1N([N+](=O)[O-])C(C(N1[N+](=O)[O-])N3[N+](=O)[O-])N2[N+](=O)[O-],303.15,0.09812,ethyl acetate,CCOC(C)=O,10.1021/acs.jced.6b00664
21612,O=[N+]([O-])N1C2C3N([N+](=O)[O-])C1C1N([N+](=O)[O-])C(C(N1[N+](=O)[O-])N3[N+](=O)[O-])N2[N+](=O)[O-],303.15,0.092425,ethyl acetate,CCOC(C)=O,10.1021/acs.jced.6b00761
21620,CCCCC1C(=O)N(c2ccccc2)N(c2ccccc2)C1=O,303.15,0.12177,ethyl acetate,CCOC(C)=O,10.1021/acs.jced.6b00911
21639,CO[C@@]1(NC(=O)CSCC#N)C(=O)N2C(C(=O)[O-])=C(CSc3nnnn3C)CS[C@@H]21.[Na+],303.15,0.000137,ethyl acetate,CCOC(C)=O,10.1021/acs.jced.6b00741
21652,CC(=O)c1ccc(S(C)(=O)=O)cc1,303.15,0.0402,ethyl acetate,CCOC(C)=O,10.1021/acs.jced.6b00617
21665,COC(=O)c1c(C)cc(O)c(C)c1O,303.15,0.1542,ethyl acetate,CCOC(C)=O,10.1021/acs.jced.6b00646
21671,O=C(/C=C/c1ccc(O)c(O)c1)O[C@H](Cc1ccc(O)c(O)c1)C(=O)O,303.15,0.050632,ethyl acetate,CCOC(C)=O,10.1021/acs.jced.6b00008
21680,O=C1NC23NC(=O)NC2(N1)C(=O)NC3=O,303.15,0.0001671,ethyl acetate,CCOC(C)=O,10.1021/acs.jced.6b00349
21686,O=C(O)/C=C/c1ccc(O)cc1,303.15,0.0144,ethyl acetate,CCOC(C)=O,10.1021/acs.jced.6b00361
21702,O=C1NC(=O)c2cc([N+](=O)[O-])ccc21,303.15,0.01805,ethyl acetate,CCOC(C)=O,10.1021/acs.jced.6b00230
21726,[NH3+]O.[NH3+]O.[O-]n1nnnc1-c1nnnn1[O-],303.15,2.374e-06,ethyl acetate,CCOC(C)=O,10.1021/acs.jced.6b00009
21753,O=[N+]([O-])c1cccc(S(=O)(=O)[O-])c1.[Na+],303.15,7.268e-05,ethyl acetate,CCOC(C)=O,10.1021/acs.jced.5b00783
21762,O=[N+]([O-])c1ccc(S(=O)(=O)[O-])cc1.[Na+],303.15,0.0001311,ethyl acetate,CCOC(C)=O,10.1021/acs.jced.5b00783
21806,Clc1cc(Cl)cc(Cl)c1,303.15,0.2741,ethyl acetate,CCOC(C)=O,10.1021/acs.jced.5b00607
21821,O=S(=O)(c1ccc(O)cc1)c1ccc(O)cc1,303.15,0.0174,ethyl acetate,CCOC(C)=O,10.1021/acs.jced.5b00714
21839,CN1C(C(=O)Nc2ccccn2)=C(O)c2sccc2S1(=O)=O,303.15,0.000746,ethyl acetate,CCOC(C)=O,10.1021/acs.jced.5b00382
21849,COC(=O)[C@H](c1ccccc1Cl)N1CCc2sccc2C1.O=S(=O)(O)O,303.15,0.000543,ethyl acetate,CCOC(C)=O,10.1021/acs.jced.5b00306
21894,C=C1C[C@]23C[C@H]1CC[C@H]2[C@@]12CC[C@H](O)[C@@](C)(C(=O)O1)[C@H]2[C@@H]3C(=O)O,303.15,0.019455,ethyl acetate,CCOC(C)=O,10.1021/acs.jced.5b00190
21903,O=P(NCc1ccccc1)(Oc1ccccc1)Oc1ccccc1,303.15,0.03684,ethyl acetate,CCOC(C)=O,10.1021/acs.jced.5b00007
21913,COc1ccc(C(=O)O)c(OC)c1,303.15,0.0312,ethyl acetate,CCOC(C)=O,10.1021/je501045s
21921,CC1(C)COC(=O)[C@@H]1O,303.15,0.446,ethyl acetate,CCOC(C)=O,10.1021/je500996n
21928,C[C@@H]1O[C@@H](O[C@H]2[C@H](Oc3cc(O)c4c(c3)O[C@H](c3ccc(O)cc3)CC4=O)O[C@H](CO)[C@@H](O)[C@@H]2O)[C@H](O)[C@H](O)[C@H]1O,303.15,0.00035035,ethyl acetate,CCOC(C)=O,10.1021/je501004g
21937,O=C1CC(c2ccc(O)cc2)Oc2cc(O)cc(O)c21,303.15,0.017076,ethyl acetate,CCOC(C)=O,10.1021/je501004g
21973,O=C(O)c1ccc(O)c(O)c1,303.15,0.00906,ethyl acetate,CCOC(C)=O,10.1021/je500519y
21980,Nc1cc(Cl)nnc1Cl,303.15,0.0019177,ethyl acetate,CCOC(C)=O,10.1021/je500286x
21996,O=C1N2CN3C(=O)N([N+](=O)[O-])C4C3N(CN3C(=O)N([N+](=O)[O-])C(C23)N1[N+](=O)[O-])C(=O)N4[N+](=O)[O-],303.15,0.0001997,ethyl acetate,CCOC(C)=O,10.1021/je500392g
22009,C=CC1=C(C(=O)O)N2C(=O)[C@@H](NC(=O)/C(=N\OCC(=O)O)c3csc(N)n3)[C@H]2SC1.O.O.O,303.15,0.00159,ethyl acetate,CCOC(C)=O,10.1021/je5000605
22014,CCN1CCN(c2cc3c(cc2F)c(=O)c(C(=O)O)cn3C2CC2)CC1,303.15,0.001053,ethyl acetate,CCOC(C)=O,10.1021/je5002158
22060,O=[N+]([O-])c1ccc(Cl)c(Cl)c1,303.15,0.8662,ethyl acetate,CCOC(C)=O,10.1021/je401044h
22071,O=[N+]([O-])c1cccc(Cl)c1Cl,303.15,0.6818,ethyl acetate,CCOC(C)=O,10.1021/je401044h
22099,CC[C@H]1OC(=O)[C@H](C)[C@@H](O[C@H]2C[C@@](C)(OC)[C@@H](O)[C@H](C)O2)[C@H](C)[C@@H](O[C@@H]2O[C@H](C)C[C@H](N(C)C)[C@H]2O)[C@](C)(O)C[C@@H](C)CN(C)[C@H](C)[C@@H](O)[C@]1(C)O.O,303.15,0.0521,ethyl acetate,CCOC(C)=O,10.1021/je400899e
22125,CCNc1nc(Cl)nc(NC(C)C)n1,303.15,0.01439,ethyl acetate,CCOC(C)=O,10.1021/je400639m
22128,O=P(Oc1ccccc1)(Oc1ccccc1)N1CCN(P(=O)(Oc2ccccc2)Oc2ccccc2)CC1,303.15,0.0012218,ethyl acetate,CCOC(C)=O,10.1021/je400412z
22138,O=[N+]([O-])c1nonc1-c1no[n+]([O-])c1-c1nonc1[N+](=O)[O-],303.15,0.087797,ethyl acetate,CCOC(C)=O,10.1021/je4005992
22177,O=C(O)c1cccc(Cl)c1C(=O)c1ccccc1,303.15,0.01283,ethyl acetate,CCOC(C)=O,10.1021/je400246s
22187,O=C1c2ccccc2C(=O)c2c(Cl)cccc21,303.15,0.007953,ethyl acetate,CCOC(C)=O,10.1021/je400246s
22246,Cc1nc(-c2ccc(OCC(C)C)c(C#N)c2)sc1C(=O)O,303.15,0.0051627,ethyl acetate,CCOC(C)=O,10.1021/je300647k
22302,c1ccc2c(c1)oc1ccccc12,303.15,0.2685,ethyl acetate,CCOC(C)=O,10.1021/je201282d
22313,O=C1c2ccccc2-c2ccccc21,303.15,0.2436,ethyl acetate,CCOC(C)=O,10.1021/je201282d
22473,N[C@@H](Cc1ccc([N+](=O)[O-])cc1[N+](=O)[O-])C(=O)O,303.15,9.1e-09,ethyl acetate,CCOC(C)=O,10.1021/je100352r
22491,CN/C(=C\[N+](=O)[O-])NCCSCc1csc(CN(C)C)n1,303.15,0.00093,ethyl acetate,CCOC(C)=O,10.1021/je1000928
22504,CC[C@H](CC[C@@H](C)[C@H]1CC[C@H]2[C@@H]3CC=C4C[C@@H](O)CC[C@]4(C)[C@H]3CC[C@@]21C)C(C)C,303.15,0.01025,ethyl acetate,CCOC(C)=O,10.1021/je9009909
22527,C[C@H](CS)C(=O)N1CCC[C@H]1C(=O)O,303.15,0.01885,ethyl acetate,CCOC(C)=O,10.1021/je900401z
22530,COC(=O)/C=C/c1ccc(O)cc1,303.15,0.0856,ethyl acetate,CCOC(C)=O,10.1021/je9004382
22535,COC(=O)/C=C/c1ccc(O)c(OC)c1,303.15,0.2172,ethyl acetate,CCOC(C)=O,10.1021/je9004382
22540,COC(=O)/C=C/c1cc(OC)c(O)c(OC)c1,303.15,0.1169,ethyl acetate,CCOC(C)=O,10.1021/je9004382
22556,CC1(C)[C@H](C(=O)O)N2C(=O)[C@@H](NC(=O)Cc3ccccc3)[C@H]2S1=O,303.15,0.0031588,ethyl acetate,CCOC(C)=O,10.1021/je900326e
22585,CCCCC(=O)N(Cc1ccc(-c2ccccc2-c2nn[nH]n2)cc1)[C@H](C(=O)O)C(C)C,303.15,0.0108,ethyl acetate,CCOC(C)=O,10.1021/je900159a
22597,CC1=C(/C=C/C(C)=C/C=C/C(C)=C/C=C/C=C(C)/C=C/C=C(C)/C=C/C2=C(C)C(=O)CCC2(C)C)C(C)(C)CCC1=O,303.15,3.674e-05,ethyl acetate,CCOC(C)=O,10.1021/je800801x
22606,O=C1OC(=O)c2c(Cl)cccc21,303.15,0.1544,ethyl acetate,CCOC(C)=O,10.1021/je800869g
22615,O=C1OC(=O)c2cc(Cl)ccc21,303.15,0.2607,ethyl acetate,CCOC(C)=O,10.1021/je800869g
22652,C[C@@H]1CC[C@H]2[C@@H](C)C(=O)O[C@@H]3O[C@@]4(C)CC[C@@H]1[C@]32OO4,303.15,0.02046851,ethyl acetate,CCOC(C)=O,10.1021/je800515w
22657,CC(=O)OCC(=O)[C@@]12N=C(C)O[C@@H]1C[C@H]1[C@@H]3CCC4=CC(=O)C=C[C@]4(C)[C@H]3[C@@H](O)C[C@@]12C,303.15,0.00399483,ethyl acetate,CCOC(C)=O,10.1021/je800790g
22674,C1CN2CCN1CC2,303.15,0.141,ethyl acetate,CCOC(C)=O,10.1021/je8005375
22695,CCCCc1nc(Cl)c(CO)n1Cc1ccc(-c2ccccc2-c2nnn[n-]2)cc1.[K+],303.15,0.001518,ethyl acetate,CCOC(C)=O,10.1021/je7007236
22709,O=P(O)(c1ccccc1)c1ccccc1,303.15,0.00075,ethyl acetate,CCOC(C)=O,10.1021/je800049b
22721,CC[C@H](CC[C@@H](C)[C@H]1CC[C@H]2[C@@H]3CC=C4C[C@@H](OC(=O)/C=C/c5ccc(O)c(OC)c5)CC[C@]4(C)[C@H]3CC[C@@]21C)C(C)C,303.15,0.0007755,ethyl acetate,CCOC(C)=O,10.1021/je7000396
22767,C1CN2CCN1CC2,303.15,0.00167,ethyl acetate,CCOC(C)=O,10.1021/je700186v
22820,O=C1OC(=O)C2C3C=CC(O3)C12,303.15,0.030934,ethyl acetate,CCOC(C)=O,10.1021/acs.jced.0c00569
22831,CC1=NN(c2ccccc2)C(=O)C1,303.15,0.03226,ethyl acetate,CCOC(C)=O,10.1021/acs.jced.9b00881
22839,CC(C(=O)O)c1ccc2c(c1)CC(=O)c1ccccc1S2,303.15,0.01757,ethyl acetate,CCOC(C)=O,10.1021/acs.jced.9b01180
22848,CC(=O)Oc1ccccc1C(=O)O,303.15,0.047054,ethyl acetate,CCOC(C)=O,10.1021/acs.jced.9b01057
22859,CC(=O)Oc1ccc(C(c2ccc(OC(C)=O)cc2)c2ccccn2)cc1,303.15,0.001979,ethyl acetate,CCOC(C)=O,10.1021/acs.jced.9b00728
22868,Nc1cccc2c1CN(C1CCC(=O)NC1=O)C2=O,303.15,0.000168,ethyl acetate,CCOC(C)=O,10.1021/acs.jced.9b00331
22876,N#CC(c1ccc(Cl)cc1)c1c(Cl)cc(-n2ncc(=O)[nH]c2=O)cc1Cl,303.15,0.01112,ethyl acetate,CCOC(C)=O,10.1021/acs.jced.9b00353
22886,N#CCc1ccc([N+](=O)[O-])cc1,303.15,0.1698,ethyl acetate,CCOC(C)=O,10.1021/acs.jced.9b00005
22901,FC(F)(F)c1cccnc1Cl,303.15,0.8237,ethyl acetate,CCOC(C)=O,10.1021/acs.jced.8b00989
22906,CCCN(CCC)S(=O)(=O)c1ccc(C(=O)O)cc1,303.15,0.008209,ethyl acetate,CCOC(C)=O,10.1021/acs.jced.8b00863
22916,N#Cc1ccc([N+](=O)[O-])cc1,303.15,0.0842,ethyl acetate,CCOC(C)=O,10.1021/acs.jced.8b00555
22924,O=[N+]([O-])N1C2C3N([N+](=O)[O-])C1C1N([N+](=O)[O-])C(C(N1[N+](=O)[O-])N3[N+](=O)[O-])N2[N+](=O)[O-],303.15,0.09812,ethyl acetate,CCOC(C)=O,10.1021/acs.jced.8b00353
22934,N#Cc1cccc([N+](=O)[O-])c1,303.15,0.1086,ethyl acetate,CCOC(C)=O,10.1021/acs.jced.8b00230
22952,O=S(=O)(c1ccc(O)cc1)c1ccc(O)cc1,303.15,0.0174,ethyl acetate,CCOC(C)=O,10.1021/acs.jced.6b00421
22959,S=C(Nc1ccccc1)Nc1ccccc1,303.15,0.01377,ethyl acetate,CCOC(C)=O,10.1016/j.jct.2021.106605
22969,O=C(O)COc1ccc(Cl)cc1Cl,303.15,0.1005,ethyl acetate,CCOC(C)=O,10.1016/j.jct.2021.106589
22979,CN1CCN(C2=Nc3cc(Cl)ccc3Nc3ccccc32)CC1,303.15,0.01605,ethyl acetate,CCOC(C)=O,10.1016/j.jct.2021.106398
22989,CN1CCN(C2=Nc3cc(Cl)ccc3Nc3ccccc32)CC1,303.15,0.01908,ethyl acetate,CCOC(C)=O,10.1016/j.jct.2021.106451
23000,CN(C)c1ccc(O)c2c1C[C@H]1C[C@H]3[C@H](N(C)C)C(O)=C(C(N)=O)C(=O)[C@@]3(O)C(O)=C1C2=O.Cl,303.15,1.92e-05,ethyl acetate,CCOC(C)=O,10.1016/j.jct.2021.106399
23008,CCCCN(CCCC)CC(O)c1cc(Cl)cc2c1-c1ccc(Cl)cc1/C2=C/c1ccc(Cl)cc1,303.15,0.006903,ethyl acetate,CCOC(C)=O,10.1016/j.jct.2020.106323
23018,COCCOC(=O)C1=C(C)NC(C)=C(C(=O)OC(C)C)C1c1cccc([N+](=O)[O-])c1,303.15,0.002485,ethyl acetate,CCOC(C)=O,10.1016/j.jct.2020.106259
23027,O=c1cc(CO)occ1O,303.15,0.002419,ethyl acetate,CCOC(C)=O,10.1016/j.jct.2020.106280
23037,O=C(O)CCc1nc(-c2ccccc2)c(-c2ccccc2)o1,303.15,0.00925,ethyl acetate,CCOC(C)=O,10.1016/j.jct.2020.106239
23047,N#Cc1ccc2c(c1)OCO2,303.15,0.187,ethyl acetate,CCOC(C)=O,10.1016/j.jct.2020.106191
23058,Cn1c(=O)c2c(ncn2CC2OCCO2)n(C)c1=O,303.15,0.02723,ethyl acetate,CCOC(C)=O,10.1016/j.jct.2020.106126
23067,O=c1[nH]c(=O)n(C2CCCO2)cc1F,303.15,0.013675,ethyl acetate,CCOC(C)=O,10.1016/j.jct.2020.106090
23076,COc1ccccc1N1CCN(CC(O)COc2cccc3ccccc23)CC1,303.15,0.009983,ethyl acetate,CCOC(C)=O,10.1016/j.jct.2019.105969
23085,Cc1ccc(NC(=O)c2ccc(CN3CCN(C)CC3)cc2)cc1Nc1nccc(-c2cccnc2)n1,303.15,0.000283,ethyl acetate,CCOC(C)=O,10.1016/j.jct.2019.106031
23094,COC(=O)Nc1nc2ccc(Sc3ccccc3)cc2[nH]1,303.15,0.0006009,ethyl acetate,CCOC(C)=O,10.1016/j.jct.2019.07.018
23102,Cc1c([N+](=O)[O-])c(C)c([N+](=O)[O-])c(C(C)(C)C)c1[N+](=O)[O-],303.15,0.2067,ethyl acetate,CCOC(C)=O,10.1016/j.jct.2019.03.029
23109,Cc1c(C(N)=O)cc([N+](=O)[O-])cc1[N+](=O)[O-],303.15,0.009059,ethyl acetate,CCOC(C)=O,10.1016/j.jct.2019.01.013
23118,O=C(Nc1ccccc1-c1ccc(Cl)cc1)c1cccnc1Cl,303.15,0.01166,ethyl acetate,CCOC(C)=O,10.1016/j.jct.2017.04.017
23129,c1ccc(-c2nnn[nH]2)cc1,303.15,0.00838,ethyl acetate,CCOC(C)=O,10.1016/j.jct.2017.04.019
23148,S=c1[nH]c2ccccc2s1,303.15,0.04337,ethyl acetate,CCOC(C)=O,10.1016/j.jct.2017.05.013
23163,Cc1cc(C)[nH]n1,303.15,0.1437,ethyl acetate,CCOC(C)=O,10.1016/j.jct.2017.02.011
23178,Cc1ccc(N)c([N+](=O)[O-])c1,303.15,0.1443,ethyl acetate,CCOC(C)=O,10.1016/j.jct.2017.02.008
23191,Nc1ccc(N)c([N+](=O)[O-])c1,303.15,0.04022,ethyl acetate,CCOC(C)=O,10.1016/j.jct.2017.01.006
23208,CC(C)c1ncc[nH]1,303.15,0.09391,ethyl acetate,CCOC(C)=O,10.1016/j.jct.2016.12.028
23214,COc1cc(CO)ccc1O,303.15,0.0296,ethyl acetate,CCOC(C)=O,10.1016/j.jct.2016.11.030
23227,Clc1ccc2c(c1)Nc1ccccc1S2,303.15,0.03571,ethyl acetate,CCOC(C)=O,10.1016/j.jct.2016.11.029
23242,Nc1ccc([N+](=O)[O-])cc1N,303.15,0.006646,ethyl acetate,CCOC(C)=O,10.1016/j.jct.2016.11.014
23259,Nc1cc(Cl)ccc1C(=O)O,303.15,0.02783,ethyl acetate,CCOC(C)=O,10.1016/j.jct.2016.11.019
23274,CC(C)(C)C(O)(CCc1ccc(Cl)cc1)Cn1cncn1,303.15,0.06676,ethyl acetate,CCOC(C)=O,10.1016/j.jct.2016.11.032
23289,Cc1cc([N+](=O)[O-])ccc1N,303.15,0.1251,ethyl acetate,CCOC(C)=O,10.1016/j.jct.2016.10.037
23306,O=Cc1cccc([N+](=O)[O-])c1,303.15,0.5106,ethyl acetate,CCOC(C)=O,10.1016/j.jct.2016.10.040
23315,Cn1cnc([N+](=O)[O-])c1Cl,303.15,0.01617,ethyl acetate,CCOC(C)=O,10.1016/j.jct.2016.10.006
23332,CC(C)C(=O)OCC(=O)[C@@]12O[C@H](C3CCCCC3)O[C@@H]1C[C@H]1[C@@H]3CCC4=CC(=O)C=C[C@]4(C)[C@H]3[C@@H](O)C[C@@]12C,303.15,0.109,ethyl acetate,CCOC(C)=O,10.1016/j.jct.2016.10.014
23343,COc1cc(Cl)nc(N)n1,303.15,0.01878,ethyl acetate,CCOC(C)=O,10.1016/j.jct.2016.10.020