,SMILES,"T,K",Solubility,Solvent,SMILES_Solvent,Source
10606,CN(C)Cc1c[nH]c2ccccc12,303.15,0.05152,n-propanol,CCCO,10.1021/acs.jced.9b00911
10613,CN(C)Cc1c[nH]c2ccccc12,303.15,0.003763,n-propanol,CCCO,10.1021/acs.jced.9b01063
10620,C[C@H](N)C(=O)O,303.15,0.000261,n-propanol,CCCO,10.1021/acs.jced.9b00743
10633,COc1cc([N+](=O)[O-])ccc1N,303.15,0.005116,n-propanol,CCCO,10.1021/acs.jced.9b00991
10643,O=Cc1ccc(O)c(Br)c1,303.15,0.0191,n-propanol,CCCO,10.1021/acs.jced.9b01004
10654,CCCc1ncc(C[n+]2ccccc2C)c(N)n1.Cl.[Cl-],303.15,0.0001064,n-propanol,CCCO,10.1021/acs.jced.9b00999
10662,Nc1ccc(Cl)cc1[N+](=O)[O-],303.15,0.02589,n-propanol,CCCO,10.1021/acs.jced.9b00919
10673,O=C(O)c1cccnc1Cl,303.15,0.01254,n-propanol,CCCO,10.1021/acs.jced.9b00661
10680,OC[C@H]1O[C@@H](Oc2ccc(O)cc2)[C@H](O)[C@@H](O)[C@@H]1O,303.15,0.0012844,n-propanol,CCCO,10.1021/acs.jced.9b00703
10690,NC(N)=NC(N)=NCCc1ccccc1,303.15,0.002495,n-propanol,CCCO,10.1021/acs.jced.9b00844
10699,CN1CCN(c2c(F)cc3c(=O)c(C(=O)O)cn4c3c2OCN4C)CC1,303.15,0.000164,n-propanol,CCCO,10.1021/acs.jced.9b00490
10720,Nc1c(Cl)cc([N+](=O)[O-])cc1Cl,303.15,0.002575,n-propanol,CCCO,10.1021/acs.jced.9b00778
10730,CN(C)[C@@H]1C(=O)C(C(N)=O)=C(O)[C@@]2(O)C(=O)C3=C(O)c4c(O)cccc4C[C@H]3C[C@@H]12,303.15,0.0001364,n-propanol,CCCO,10.1021/acs.jced.9b00693
10741,N[C@H](Cc1c[nH]cn1)C(=O)O,303.15,0.0007602,n-propanol,CCCO,10.1021/acs.jced.9b00659
10753,O=P(O)(O)c1ccccc1,303.15,0.29625,n-propanol,CCCO,10.1021/acs.jced.9b00362
10766,OCc1ccc(O[C@@H]2O[C@H](CO)[C@@H](O)[C@H](O)[C@H]2O)cc1,303.15,0.00226,n-propanol,CCCO,10.1021/acs.jced.9b00286
10774,O=[N+]([O-])c1ncccc1O,303.15,0.1265,n-propanol,CCCO,10.1021/acs.jced.9b00564
10791,N=C(N)NC(N)=S,303.15,0.005644,n-propanol,CCCO,10.1021/acs.jced.9b00458
10807,CC1(C)COP(=O)(Oc2cccc(OP3(=O)OCC(C)(C)CO3)c2)OC1,303.15,0.00187,n-propanol,CCCO,10.1021/acs.jced.7b00695
10819,O=C1C=CC(=O)N1c1ccccc1Br,303.15,0.01875,n-propanol,CCCO,10.1021/acs.jced.9b00560
10839,C[C@]12CCC3=C4CCC(=O)C=C4CC[C@H]3[C@@H]1CC[C@@]2(O)CC#N,303.15,0.00345,n-propanol,CCCO,10.1021/acs.jced.9b00696
10847,Cc1nc(N)nc(N)n1,303.15,0.0006889,n-propanol,CCCO,10.1021/acs.jced.9b00593
10878,Cc1cnc(C(=O)O)cn1,303.15,2.34e-05,n-propanol,CCCO,10.1021/acs.jced.9b00406
10885,Nc1nnn[nH]1,303.15,0.001063,n-propanol,CCCO,10.1021/acs.jced.9b00385
10906,Sc1nc2ccccc2[nH]1,303.15,0.00999,n-propanol,CCCO,10.1021/acs.jced.9b00190
10913,Cc1c(C(=O)O)cc([N+](=O)[O-])cc1[N+](=O)[O-],303.15,0.02018,n-propanol,CCCO,10.1021/acs.jced.9b00497
10925,Cc1n[nH]c2cc([N+](=O)[O-])ccc12,303.15,0.0108,n-propanol,CCCO,10.1021/acs.jced.8b01256
10947,CN(C)/C=C/C(=O)c1cccnc1,303.15,0.03308,n-propanol,CCCO,10.1021/acs.jced.9b00047
10958,N#Cc1cccc([N+](=O)[O-])c1C#N,303.15,0.001886,n-propanol,CCCO,10.1021/acs.jced.8b01250
10969,O=Cc1cc([N+](=O)[O-])ccc1O,303.15,0.00308,n-propanol,CCCO,10.1021/acs.jced.9b00232
10976,N[C@H](Cc1c[nH]c2ccccc12)C(=O)O,303.15,0.0001109,n-propanol,CCCO,10.1021/acs.jced.9b00258
10994,N[C@H](CC(=O)O)C(=O)O,303.15,0.0003755,n-propanol,CCCO,10.1021/acs.jced.9b00320
11006,N#CCc1ccccc1[N+](=O)[O-],303.15,0.01506,n-propanol,CCCO,10.1021/acs.jced.9b00243
11019,Nc1cc([N+](=O)[O-])ccc1Cl,303.15,0.0209,n-propanol,CCCO,10.1021/acs.jced.8b00931
11028,CCOC(=O)[C@@H](C)Oc1ccc(Oc2cnc3cc(Cl)ccc3n2)cc1,303.15,0.008318,n-propanol,CCCO,10.1021/acs.jced.8b01181
11037,N#CCC(N)=O,303.15,0.009353,n-propanol,CCCO,10.1021/acs.jced.8b01205
11046,Cc1cccc(C(=O)O)c1N,303.15,0.03441,n-propanol,CCCO,10.1021/acs.jced.8b01226
11054,NC(=O)c1ccc([N+](=O)[O-])cc1,303.15,0.002277,n-propanol,CCCO,10.1021/acs.jced.9b00065
11065,Nc1nc2c(ncn2COC(CO)CO)c(=O)[nH]1,303.15,0.0002459,n-propanol,CCCO,10.1021/acs.jced.8b01080
11075,Nc1cccc2c(N)cccc12,303.15,0.001654,n-propanol,CCCO,10.1021/acs.jced.8b01214
11084,Nc1cccc2cccc(N)c12,303.15,0.1211,n-propanol,CCCO,10.1021/acs.jced.8b01214
11091,C[C@@H](O)[C@H]1C(=O)N2C(C(=O)[O-])=C(SC3Cn4cnc[n+]4C3)[C@H](C)[C@H]12,303.15,2.316e-05,n-propanol,CCCO,10.1021/acs.jced.8b01051
11101,O=C(O)Cc1c[nH]c2ccccc12,303.15,2.082e-05,n-propanol,CCCO,10.1021/acs.jced.8b01265
11112,CC#C[C@]1(O)CC[C@H]2[C@@H]3CCC4=CC(=O)CCC4=C3[C@@H](c3ccc(N(C)C)cc3)C[C@@]21C,303.15,0.000362,n-propanol,CCCO,10.1021/acs.jced.8b01062
11120,NC(=O)c1ccc(N)cc1,303.15,0.005851,n-propanol,CCCO,10.1021/acs.jced.8b01144
11129,CC(=O)N(CC(O)CO)c1c(I)c(C(=O)NCC(O)CO)c(I)c(C(=O)NCC(O)CO)c1I,303.15,0.001188,n-propanol,CCCO,10.1021/acs.jced.8b01101
11140,CC(C)N1C(=O)N(c2ccccc2)CSC1=NC(C)(C)C,303.15,0.03235,n-propanol,CCCO,10.1021/acs.jced.8b01099
11148,COC(=O)Nc1nc2ccc(C(=O)c3ccc(F)cc3)cc2[nH]1,303.15,2.158e-05,n-propanol,CCCO,10.1021/acs.jced.8b01126
11161,Cc1nc(C)c(C)nc1C,303.15,0.24466,n-propanol,CCCO,10.1021/acs.jced.8b00888
11169,Nc1nc(Cl)c2[nH]cnc2n1,303.15,0.0002339,n-propanol,CCCO,10.1021/acs.jced.8b01014
11182,COc1c(N2CCNC(C)C2)c(F)cc2c(=O)c(C(=O)O)cn(C3CC3)c12,303.15,0.001086,n-propanol,CCCO,10.1021/acs.jced.8b00902
11190,CCOC(=O)C1=C[C@]2(CC)CCCN3CCc4c(n1c1ccccc41)[C@@H]32,303.15,0.0020846,n-propanol,CCCO,10.1021/acs.jced.8b00663
11200,N#CCc1ccc([N+](=O)[O-])cc1,303.15,0.004203,n-propanol,CCCO,10.1021/acs.jced.8b00811
11211,COc1ccc(Cl)cc1C(=O)NCCc1ccc(S(=O)(=O)NC(=O)NC2CCCCC2)cc1,303.15,0.0002864,n-propanol,CCCO,10.1021/acs.jced.8b00717
11220,NNC(=O)c1ccncc1,303.15,0.004953,n-propanol,CCCO,10.1021/acs.jced.8b00785
11229,CC[C@@H](C(N)=O)N1CCCC1=O,303.15,0.03625,n-propanol,CCCO,10.1021/acs.jced.8b00720
11236,O=C(O)c1cc2ccccc2cc1O,303.15,0.02884,n-propanol,CCCO,10.1021/acs.jced.8b00578
11248,CS(=O)(=O)O.Cc1ccc(NC(=O)c2ccc(CN3CCN(C)CC3)cc2)cc1Nc1nccc(-c2cccnc2)n1,303.15,0.0001556,n-propanol,CCCO,10.1021/acs.jced.8b00551
11256,Cc1ccc(S(N)(=O)=O)cc1,303.15,0.04696,n-propanol,CCCO,10.1021/acs.jced.7b00714
11264,Cc1ccccc1S(N)(=O)=O,303.15,0.03305,n-propanol,CCCO,10.1021/acs.jced.7b00714
11273,N#Cc1cccc([N+](=O)[O-])c1,303.15,0.007295,n-propanol,CCCO,10.1021/acs.jced.7b00615
11296,CS(=O)(=O)c1ccc([C@@H](O)[C@@H](CO)NC(=O)C(Cl)Cl)cc1,303.15,0.0002853,n-propanol,CCCO,10.1021/acs.jced.7b00542
11304,NC(=O)c1cccnc1,303.15,0.044966,n-propanol,CCCO,10.1021/acs.jced.8b00560
11329,Nc1nc(Cl)cc(Cl)n1,303.15,0.001919,n-propanol,CCCO,10.1021/acs.jced.8b00292
11337,O=C(c1ccccc1)C(O)c1ccccc1,303.15,0.00284,n-propanol,CCCO,10.1021/acs.jced.7b00238
11367,On1nnc2ccccc21,303.15,0.05731,n-propanol,CCCO,10.1021/acs.jced.7b00316
11377,COc1ccc(CN2CCNCC2)c(OC)c1OC.Cl,303.15,0.0003663,n-propanol,CCCO,10.1021/acs.jced.8b00235
11387,O=c1nc[nH]c2[nH]ncc12,303.15,0.0001397,n-propanol,CCCO,10.1021/acs.jced.8b00430
11398,Cc1cc(C)nc(Nc2ccccc2)n1,303.15,0.03701,n-propanol,CCCO,10.1021/acs.jced.8b00124
11408,CC(=O)c1cccc([N+](=O)[O-])c1,303.15,0.01237,n-propanol,CCCO,10.1021/acs.jced.8b00192
11417,CC(=O)c1ccc([N+](=O)[O-])cc1,303.15,0.01537,n-propanol,CCCO,10.1021/acs.jced.8b00192
11427,COc1ccc(C(=O)N2CCCC2=O)cc1,303.15,0.00358,n-propanol,CCCO,10.1021/acs.jced.8b00023
11437,O=C(O)Cc1ccccc1Cl,303.15,0.3323,n-propanol,CCCO,10.1021/acs.jced.8b00139
11449,Nc1ccc(C(=O)O)cc1.[K],303.15,0.000884,n-propanol,CCCO,10.1021/acs.jced.7b00978
11457,CS(=O)(=O)c1ccc([C@@H](O)[C@@H](CF)NC(=O)C(Cl)Cl)cc1,303.15,0.002688,n-propanol,CCCO,10.1021/acs.jced.8b00043
11467,O=C(c1ccccc1)c1ccccc1,303.15,0.3132,n-propanol,CCCO,10.1021/acs.jced.8b00196
11477,O=C(c1ccccc1)C(O)c1ccccc1,303.15,0.002768,n-propanol,CCCO,10.1021/acs.jced.7b00743
11492,Cc1ccc(S(=O)(=O)O)cc1.Cc1ccc(S(=O)(=O)O)cc1.OCCN(CCO)c1nc(N2CCCCC2)c2nc(N(CCO)CCO)nc(N3CCCCC3)c2n1,303.15,0.000602,n-propanol,CCCO,10.1021/acs.jced.7b00825
11502,C[C@@H]1O[C@@H]1P(=O)([O-])[O-].[Na+].[Na+],303.15,3.09e-05,n-propanol,CCCO,10.1021/acs.jced.7b00638
11510,CO/C=C(/C(=O)OC)c1ccccc1Oc1cc(Oc2ccccc2C#N)ncn1,303.15,0.001621,n-propanol,CCCO,10.1021/acs.jced.7b00669
11518,O=C(O)CS.[Na],303.15,0.000587,n-propanol,CCCO,10.1021/acs.jced.7b00245
11538,O=[N+]([O-])N1C2C3N([N+](=O)[O-])C1C1N([N+](=O)[O-])C(C(N1[N+](=O)[O-])N3[N+](=O)[O-])N2[N+](=O)[O-],303.15,0.0003055,n-propanol,CCCO,10.1021/acs.jced.6b00761
11546,CCOC(=O)N1CCC(=C2c3ccc(Cl)cc3CCc3cccnc32)CC1,303.15,0.04739,n-propanol,CCCO,10.1021/acs.jced.6b00721
11556,CO[C@@]1(NC(=O)CSCC#N)C(=O)N2C(C(=O)[O-])=C(CSc3nnnn3C)CS[C@@H]21.[Na+],303.15,0.000153,n-propanol,CCCO,10.1021/acs.jced.6b00741
11569,CC(=O)c1ccc(S(C)(=O)=O)cc1,303.15,0.0185,n-propanol,CCCO,10.1021/acs.jced.6b00617
11577,COC(=O)c1c(C)cc(O)c(C)c1O,303.15,0.1113,n-propanol,CCCO,10.1021/acs.jced.6b00646
11583,CNC(=O)c1cc(Oc2ccc(NC(=O)Nc3ccc(Cl)c(C(F)(F)F)c3)cc2)ccn1,303.15,0.001369,n-propanol,CCCO,10.1021/acs.jced.6b00630
11589,CNC(=O)c1cc(Oc2ccc(NC(=O)Nc3ccc(Cl)c(C(F)(F)F)c3)cc2)ccn1.Cc1ccc(S(=O)(=O)O)cc1,303.15,0.0002584,n-propanol,CCCO,10.1021/acs.jced.6b00630
11599,O=C1NC23NC(=O)NC2(N1)C(=O)NC3=O,303.15,0.000103,n-propanol,CCCO,10.1021/acs.jced.6b00349
11605,O=C(O)/C=C/c1ccc(O)cc1,303.15,0.0429,n-propanol,CCCO,10.1021/acs.jced.6b00361
11617,CCOC(=O)c1ccc(N)cc1,303.15,0.101,n-propanol,CCCO,10.1021/acs.jced.6b00037
11633,CS(=O)(=O)c1ccc(C=O)cc1,303.15,0.001264,n-propanol,CCCO,10.1021/acs.jced.5b01053
11651,CC(C)(C)c1ccc(OP2OCC3(CO2)COP(Oc2ccc(C(C)(C)C)cc2C(C)(C)C)OC3)c(C(C)(C)C)c1,303.15,0.0004771,n-propanol,CCCO,10.1021/acs.jced.5b00823
11663,C=C(C)[C@@H]1CC[C@]2(C(=O)O)CC[C@]3(C)[C@H](CC[C@@H]4[C@@]5(C)CCC(=O)C(C)(C)[C@@H]5CC[C@]43C)[C@@H]12,303.15,0.01163,n-propanol,CCCO,10.1021/acs.jced.5b00122
11669,COc1cc(C(=O)O)ccc1O,303.15,0.0282,n-propanol,CCCO,10.1021/acs.jced.5b00619
11707,Clc1cc(Cl)cc(Cl)c1,303.15,0.09729,n-propanol,CCCO,10.1021/acs.jced.5b00607
11722,O=S(=O)(c1ccc(O)cc1)c1ccc(O)cc1,303.15,0.0009671,n-propanol,CCCO,10.1021/acs.jced.5b00714
11730,COc1ccc(C(=O)O)c(OC)c1,303.15,0.0195,n-propanol,CCCO,10.1021/je501045s
11759,O=C(O)c1ccco1,303.15,0.2082,n-propanol,CCCO,10.1021/je500012b
11775,O=[N+]([O-])c1ccc(Cl)c(Cl)c1,303.15,0.173,n-propanol,CCCO,10.1021/je401044h
11786,O=[N+]([O-])c1cccc(Cl)c1Cl,303.15,0.05752,n-propanol,CCCO,10.1021/je401044h
11788,OC(Cn1cncn1)(Cn1cncn1)c1ccc(F)cc1F,303.15,0.0127,n-propanol,CCCO,10.1021/je4010257
11812,CCNc1nc(Cl)nc(NC(C)C)n1,303.15,0.0050861,n-propanol,CCCO,10.1021/je400639m
11818,O=C(O)[C@@H]1Cc2ccccc2N1,303.15,0.002843,n-propanol,CCCO,10.1021/je400188h
11836,CC1=C(C(=O)O)N2C(=O)[C@@H](NC(=O)[C@H](N)C3=CCC=CC3)[C@H]2SC1,303.15,0.000381,n-propanol,CCCO,10.1021/je400218d
11916,Nc1cc(N2CCCCC2)nc(N)[n+]1[O-],303.15,0.00786,n-propanol,CCCO,10.1021/je1012839
11939,COC(=O)[C@H](c1ccccc1Cl)N1CCc2sccc2C1.O=S(=O)(O)O,303.15,0.007323,n-propanol,CCCO,10.1021/je200067e
11948,CCc1ccc(CCOc2ccc(CC3SC(=O)NC3=O)cc2)nc1.Cl,303.15,0.0007501,n-propanol,CCCO,10.1021/je101230a
11971,C[C@@H]1[C@H]2C3=CC[C@@H]4[C@@]5(C)C[C@@H](O)[C@H](O)[C@@](C)(CO)[C@@H]5CC[C@@]4(C)[C@]3(C)CC[C@@]2(C(=O)O[C@@H]2O[C@H](CO[C@@H]3O[C@H](CO)[C@@H](O[C@@H]4O[C@@H](C)[C@H](O)[C@@H](O)[C@H]4O)[C@H](O)[C@H]3O)[C@@H](O)[C@H](O)[C@H]2O)CC[C@H]1C,303.15,6.06e-05,n-propanol,CCCO,10.1021/je101208p
11985,CCOc1nc2cccc(C(=O)OC(C)OC(=O)OC3CCCCC3)c2n1Cc1ccc(-c2ccccc2-c2nnn[nH]2)cc1,303.15,0.00208,n-propanol,CCCO,10.1021/je101020m
12049,N[C@@H](Cc1ccc([N+](=O)[O-])cc1[N+](=O)[O-])C(=O)O,303.15,1.006e-05,n-propanol,CCCO,10.1021/je100352r
12059,Nc1ccc(S(=O)(=O)Nc2ncccn2)cc1,303.15,0.0001642,n-propanol,CCCO,10.1021/je900742p
12118,Nc1ccc(S(N)(=O)=O)cc1,303.15,0.003326,n-propanol,CCCO,10.1021/je900038m
12177,O=C(Oc1ccccc1)c1ccccc1O,303.15,0.3298,n-propanol,CCCO,10.1021/je800668j
12240,CCCCc1nc(Cl)c(CO)n1Cc1ccc(-c2ccccc2-c2nnn[n-]2)cc1.[K+],303.15,0.02725,n-propanol,CCCO,10.1021/je7007236
12270,CN(C)CCC(c1ccc(Cl)cc1)c1ccccn1.O=C(O)/C=C\C(=O)O,303.15,0.00612,n-propanol,CCCO,10.1021/je7001682
12318,CC(C)(Oc1ccc(C2CC2(Cl)Cl)cc1)C(=O)O,303.15,0.125,n-propanol,CCCO,10.1021/acs.jced.1c00276
12328,COCCOc1ccccc1S(=O)(=O)NC(=O)Nc1nc(OC)nc(OC)n1,303.15,0.002595,n-propanol,CCCO,10.1021/acs.jced.1c00357
12338,COC(=O)c1sccc1S(=O)(=O)NC(=O)Nc1nc(C)nc(OC)n1,303.15,0.0001004,n-propanol,CCCO,10.1021/acs.jced.1c00267
12348,CCCc1cc(=O)[nH]c(=S)[nH]1,303.15,0.004933,n-propanol,CCCO,10.1021/acs.jced.1c00071
12358,O=Cc1ccc(O)c(Br)c1,303.15,0.0191,n-propanol,CCCO,10.1021/acs.jced.0c00043
12368,Nc1c(Cl)cc([N+](=O)[O-])cc1Cl,303.15,0.002575,n-propanol,CCCO,10.1021/acs.jced.0c00199
12378,COc1cc([N+](=O)[O-])ccc1N,303.15,0.005116,n-propanol,CCCO,10.1021/acs.jced.0c00041
12389,CC1=NN(c2ccccc2)C(=O)C1,303.15,0.03931,n-propanol,CCCO,10.1021/acs.jced.9b00881
12396,CC(=O)Oc1ccccc1C(=O)O,303.15,0.0575523,n-propanol,CCCO,10.1021/acs.jced.9b01057
12407,CC(=O)Oc1ccc(C(c2ccc(OC(C)=O)cc2)c2ccccn2)cc1,303.15,0.000199,n-propanol,CCCO,10.1021/acs.jced.9b00728
12416,COc1c(N2CCNC(C)C2)c(F)cc2c(=O)c(C(=O)O)cn(C3CC3)c12,303.15,0.001086,n-propanol,CCCO,10.1021/acs.jced.9b00930
12424,N#CC(c1ccc(Cl)cc1)c1c(Cl)cc(-n2ncc(=O)[nH]c2=O)cc1Cl,303.15,0.002683,n-propanol,CCCO,10.1021/acs.jced.9b00353
12434,c1ccc(-c2ccc(C(c3ccccc3)n3ccnc3)cc2)cc1,303.15,0.006124,n-propanol,CCCO,10.1021/acs.jced.9b00097
12443,N#CCc1ccc([N+](=O)[O-])cc1,303.15,0.004203,n-propanol,CCCO,10.1021/acs.jced.9b00005
12455,O=C(O)[C@H]1O[C@@H](Oc2cc3oc(-c4ccccc4)cc(=O)c3c(O)c2O)[C@H](O)[C@@H](O)[C@@H]1O,303.15,0.00289,n-propanol,CCCO,10.1021/acs.jced.8b01186
12463,CCCN(CCC)S(=O)(=O)c1ccc(C(=O)O)cc1,303.15,0.0135,n-propanol,CCCO,10.1021/acs.jced.8b00863
12477,N#Cc1ccc([N+](=O)[O-])cc1,303.15,0.006193,n-propanol,CCCO,10.1021/acs.jced.8b00555
12486,N#Cc1cccc([N+](=O)[O-])c1,303.15,0.007295,n-propanol,CCCO,10.1021/acs.jced.8b00230
12495,CN1CC(O)c2cc(N=NC(N)=O)c(O)cc21,303.15,3.656e-05,n-propanol,CCCO,10.1021/acs.jced.7b00982
12501,COc1ccc([C@@H]2CC(=O)c3c(O)cc(O[C@@H]4O[C@H](CO[C@@H]5O[C@@H](C)[C@H](O)[C@@H](O)[C@H]5O)[C@@H](O)[C@H](O)[C@H]4O)cc3O2)cc1O,303.15,0.00019,n-propanol,CCCO,10.1021/acs.jced.7b00948
12512,COC(=O)[C@H](N)c1ccc(O)cc1,303.15,0.0029507,n-propanol,CCCO,10.1021/acs.jced.6b00415
12531,S=C(Nc1ccccc1)Nc1ccccc1,303.15,0.003191,n-propanol,CCCO,10.1016/j.jct.2021.106605
12540,c1ccc2[nH]c(-c3cscn3)nc2c1,303.15,0.00225,n-propanol,CCCO,10.1016/j.jct.2021.106616
12550,O=C(O)COc1ccc(Cl)cc1Cl,303.15,0.1309,n-propanol,CCCO,10.1016/j.jct.2021.106589
12559,Nc1nc2ccc(OC(F)(F)F)cc2s1,303.15,0.24877,n-propanol,CCCO,10.1016/j.jct.2021.106569
12570,Cn1c(=O)cc(N2CCC[C@@H](N)C2)n(Cc2ccccc2C#N)c1=O.O=C(O)c1ccccc1,303.15,0.000278,n-propanol,CCCO,10.1016/j.jct.2021.106474
12578,CC(=O)Nc1ccc(C(=O)O)cc1,303.15,0.007925,n-propanol,CCCO,10.1016/j.jct.2021.106478
12588,CN1CCN(C2=Nc3cc(Cl)ccc3Nc3ccccc32)CC1,303.15,0.01085,n-propanol,CCCO,10.1016/j.jct.2021.106398
12598,CN1CCN(C2=Nc3cc(Cl)ccc3Nc3ccccc32)CC1,303.15,0.01336,n-propanol,CCCO,10.1016/j.jct.2021.106451
12609,CN(C)c1ccc(O)c2c1C[C@H]1C[C@H]3[C@H](N(C)C)C(O)=C(C(N)=O)C(=O)[C@@]3(O)C(O)=C1C2=O.Cl,303.15,0.000986,n-propanol,CCCO,10.1016/j.jct.2021.106399
12618,CCN(CC)CCCC(C)Nc1ccnc2cc(Cl)ccc12.O=P(O)(O)O.O=P(O)(O)O,303.15,7.87e-06,n-propanol,CCCO,10.1016/j.jct.2020.106368
12626,CCCCN(CCCC)CC(O)c1cc(Cl)cc2c1-c1ccc(Cl)cc1/C2=C/c1ccc(Cl)cc1,303.15,0.0003877,n-propanol,CCCO,10.1016/j.jct.2020.106323
12636,COCCOC(=O)C1=C(C)NC(C)=C(C(=O)OC(C)C)C1c1cccc([N+](=O)[O-])c1,303.15,0.01953,n-propanol,CCCO,10.1016/j.jct.2020.106259
12645,O=c1cc(CO)occ1O,303.15,0.006458,n-propanol,CCCO,10.1016/j.jct.2020.106280
12656,CC#CCn1c(N2CCC[C@@H](N)C2)nc2c1c(=O)n(Cc1nc(C)c3ccccc3n1)c(=O)n2C,303.15,0.00093,n-propanol,CCCO,10.1016/j.jct.2020.106273
12664,O=Cc1cc(Br)c(O)c(Br)c1,303.15,0.006696,n-propanol,CCCO,10.1016/j.jct.2020.106252
12674,O=C(O)CCc1nc(-c2ccccc2)c(-c2ccccc2)o1,303.15,0.00794,n-propanol,CCCO,10.1016/j.jct.2020.106239
12684,CC(C)Oc1ccc2c(=O)c(-c3ccccc3)coc2c1,303.15,0.005091,n-propanol,CCCO,10.1016/j.jct.2020.106231
12694,N#Cc1ccc2c(c1)OCO2,303.15,0.02003,n-propanol,CCCO,10.1016/j.jct.2020.106191
12705,COc1cccc(C=O)c1O,303.15,0.5545,n-propanol,CCCO,10.1016/j.jct.2020.106199
12712,Cn1c(=O)c2c(ncn2CC2OCCO2)n(C)c1=O,303.15,0.0012,n-propanol,CCCO,10.1016/j.jct.2020.106126
12721,O=c1[nH]c(=O)n(C2CCCO2)cc1F,303.15,0.004196,n-propanol,CCCO,10.1016/j.jct.2020.106090
12729,CNC[C@H](O)c1cccc(O)c1.Cl,303.15,0.01329,n-propanol,CCCO,10.1016/j.jct.2019.105959
12740,Cc1ccc(NC(=O)c2ccc(CN3CCN(C)CC3)cc2)cc1Nc1nccc(-c2cccnc2)n1,303.15,0.00104,n-propanol,CCCO,10.1016/j.jct.2019.106031
12749,COC(=O)Nc1nc2ccc(Sc3ccccc3)cc2[nH]1,303.15,0.00011107,n-propanol,CCCO,10.1016/j.jct.2019.07.018
12756,Cl.c1ccc([C@H]2CN3CCSC3=N2)cc1,303.15,0.009035,n-propanol,CCCO,10.1016/j.jct.2019.105882
12765,Cc1c(C(N)=O)cc([N+](=O)[O-])cc1[N+](=O)[O-],303.15,0.003507,n-propanol,CCCO,10.1016/j.jct.2019.01.013
12787,O=C1c2cccc(O)c2C(=O)c2c(O)cc(CO)cc21,303.15,6.56e-05,n-propanol,CCCO,10.1016/j.jct.2016.02.020
12799,c1ccc(-c2nnn[nH]2)cc1,303.15,0.01885,n-propanol,CCCO,10.1016/j.jct.2017.04.019
12818,S=c1[nH]c2ccccc2s1,303.15,0.03089,n-propanol,CCCO,10.1016/j.jct.2017.05.013
12833,Cc1cc(C)[nH]n1,303.15,0.1842,n-propanol,CCCO,10.1016/j.jct.2017.02.011
12848,Cc1ccc(N)c([N+](=O)[O-])c1,303.15,0.02573,n-propanol,CCCO,10.1016/j.jct.2017.02.008
12861,Nc1ccc(N)c([N+](=O)[O-])c1,303.15,0.007318,n-propanol,CCCO,10.1016/j.jct.2017.01.006
12878,CC(C)c1ncc[nH]1,303.15,0.1531,n-propanol,CCCO,10.1016/j.jct.2016.12.028
12891,Clc1ccc2c(c1)Nc1ccccc1S2,303.15,0.005753,n-propanol,CCCO,10.1016/j.jct.2016.11.029
12906,Nc1ccc([N+](=O)[O-])cc1N,303.15,0.001151,n-propanol,CCCO,10.1016/j.jct.2016.11.014
12923,Nc1cc(Cl)ccc1C(=O)O,303.15,0.01983,n-propanol,CCCO,10.1016/j.jct.2016.11.019
12938,CC(C)(C)C(O)(CCc1ccc(Cl)cc1)Cn1cncn1,303.15,0.0296,n-propanol,CCCO,10.1016/j.jct.2016.11.032
12953,Cc1cc([N+](=O)[O-])ccc1N,303.15,0.0162,n-propanol,CCCO,10.1016/j.jct.2016.10.037
12976,CC(=O)[C@@]1(O)CC[C@H]2[C@@H]3CCC4=CC(=O)CC[C@]4(C)[C@H]3[C@@H](O)C[C@@]21C,303.15,0.01426,n-propanol,CCCO,10.1016/j.jct.2016.10.046
12987,Cn1cnc([N+](=O)[O-])c1Cl,303.15,0.003422,n-propanol,CCCO,10.1016/j.jct.2016.10.006
13004,CC(C)C(=O)OCC(=O)[C@@]12O[C@H](C3CCCCC3)O[C@@H]1C[C@H]1[C@@H]3CCC4=CC(=O)C=C[C@]4(C)[C@H]3[C@@H](O)C[C@@]12C,303.15,0.0567,n-propanol,CCCO,10.1016/j.jct.2016.10.014
13015,COc1cc(Cl)nc(N)n1,303.15,0.005017,n-propanol,CCCO,10.1016/j.jct.2016.10.020
13023,NC(=O)N1c2ccccc2CC(=O)c2ccccc21,303.15,0.000475,n-propanol,CCCO,10.1016/j.jct.2016.09.011
13031,O=Cc1ccc([N+](=O)[O-])cc1,303.15,0.02723,n-propanol,CCCO,10.1016/j.jct.2016.09.012
13042,Nc1nnc[nH]1,303.15,0.02197,n-propanol,CCCO,10.1016/j.jct.2016.09.033
13052,C[C@@H]1O[C@@H](OC[C@H]2O[C@@H](Oc3c(-c4ccc(OCCO)c(OCCO)c4)oc4cc(OCCO)cc(O)c4c3=O)[C@H](O)[C@@H](O)[C@@H]2O)[C@H](O)[C@H](O)[C@H]1O,303.15,0.000258,n-propanol,CCCO,10.1016/j.jct.2016.09.015
13063,O=Cc1ccc(C=O)cc1,303.15,0.02563,n-propanol,CCCO,10.1016/j.jct.2016.07.013
13077,CC1=NN(c2ccc(C)cc2)C(=O)C1,303.15,0.04142,n-propanol,CCCO,10.1016/j.jct.2016.08.007
13092,O=[N+]([O-])c1ccc(O)c2ncccc12,303.15,0.001434,n-propanol,CCCO,10.1016/j.jct.2016.04.018
13102,Cc1ccc(C(C)C)c(O)c1,303.15,0.6557,n-propanol,CCCO,10.1016/j.jct.2015.09.010
13113,O=C1NC(=O)c2ccccc21,303.15,0.003084,n-propanol,CCCO,10.1016/j.jct.2015.10.024
13130,Cc1cccc([N+](=O)[O-])c1N,303.15,0.03051,n-propanol,CCCO,10.1016/j.jct.2016.05.027
13143,Cc1cc(C(=O)O)ccc1[N+](=O)[O-],303.15,0.01155,n-propanol,CCCO,10.1016/j.jct.2016.07.023
13162,N=C(Nc1ccccc1)Nc1ccccc1,303.15,0.0406,n-propanol,CCCO,10.1016/j.jct.2016.03.011
13189,CC(C)(C)[C@H](O)[C@H](Cc1ccc(Cl)cc1)n1cncn1,303.15,0.02152,n-propanol,CCCO,10.1016/j.jct.2016.09.038
13202,CCOC(=O)Cc1c(C(=O)OCC)sc(N)c1C#N,303.15,0.009609,n-propanol,CCCO,10.1016/j.jct.2015.11.025
13211,Nc1ccc(N2CCOCC2=O)cc1,303.15,0.001053,n-propanol,CCCO,10.1016/j.jct.2016.01.022
13224,O=C1c2cccc(Cl)c2C(=O)N1c1ccccc1,303.15,0.0004106,n-propanol,CCCO,10.1016/j.jct.2016.01.003
13238,CC(C)(C)C(=O)C(Oc1ccc(Cl)cc1)n1ccnc1,303.15,0.1899,n-propanol,CCCO,10.1016/j.jct.2014.04.011
13246,CN(C)[C@@H]1C(O)=C(C(N)=O)C(=O)[C@@]2(O)C(O)=C3C(=O)c4c(O)cccc4[C@@](C)(O)[C@H]3C[C@@H]12.Cl,303.15,0.0003182,n-propanol,CCCO,10.1016/j.jct.2012.08.007
13265,Clc1ncnc2[nH]ccc12,303.15,0.0205,n-propanol,CCCO,10.1016/j.jct.2021.106493
13274,Nc1nc(N)nc(NC2CC2)n1,303.15,0.001629,n-propanol,CCCO,10.1016/j.fluid.2018.07.024
13283,Cn1cc([N+](=O)[O-])cn1,303.15,0.003314,n-propanol,CCCO,10.1016/j.fluid.2018.05.023
13289,CC1(C)CCC2=C(O1)c1ccccc1C(=O)C2=O,303.15,0.00793,n-propanol,CCCO,10.1016/j.fluid.2018.05.005